       N       E                     dE             d eps       ncg     rms          rms(c)
1 T=  1397. E= -.29239640E+03 F= -.29564573E+03 E0= -.29564573E+03  EK= 0.32493E+01 SP= 0.00E+00 SK= 0.00E+00 mag=      0.000
2 T=  1392. E= -.29239630E+03 F= -.29563584E+03 E0= -.29563584E+03  EK= 0.32395E+01 SP= 0.00E+00 SK= 0.00E+00 mag=      0.000
3 T=  1381. E= -.29239602E+03 F= -.29560814E+03 E0= -.29560814E+03  EK= 0.32121E+01 SP= 0.00E+00 SK= 0.00E+00 mag=     -0.000
4 T=  1363. E= -.29239572E+03 F= -.29556655E+03 E0= -.29556655E+03  EK= 0.31708E+01 SP= 0.00E+00 SK= 0.00E+00 mag=     -0.000
5 T=  1341. E= -.29239544E+03 F= -.29551561E+03 E0= -.29551561E+03  EK= 0.31202E+01 SP= 0.00E+00 SK= 0.00E+00 mag=      0.000
6 T=  1317. E= -.29239524E+03 F= -.29545945E+03 E0= -.29545945E+03  EK= 0.30642E+01 SP= 0.00E+00 SK= 0.00E+00 mag=      0.000
7 T=  1292. E= -.29239518E+03 F= -.29540084E+03 E0= -.29540084E+03  EK= 0.30057E+01 SP= 0.00E+00 SK= 0.00E+00 mag=      0.000
8 T=  1266. E= -.29239524E+03 F= -.29534053E+03 E0= -.29534053E+03  EK= 0.29453E+01 SP= 0.00E+00 SK= 0.00E+00 mag=     -0.000
9 T=  1239. E= -.29239543E+03 F= -.29527744E+03 E0= -.29527744E+03  EK= 0.28820E+01 SP= 0.00E+00 SK= 0.00E+00 mag=     -0.000
10 T=  1209. E= -.29239566E+03 F= -.29520887E+03 E0= -.29520887E+03  EK= 0.28132E+01 SP= 0.00E+00 SK= 0.00E+00 mag=     -0.000
11 T=  1176. E= -.29239582E+03 F= -.29513149E+03 E0= -.29513149E+03  EK= 0.27357E+01 SP= 0.00E+00 SK= 0.00E+00 mag=      0.000
12 T=  1138. E= -.29239587E+03 F= -.29504278E+03 E0= -.29504278E+03  EK= 0.26469E+01 SP= 0.00E+00 SK= 0.00E+00 mag=      0.000
13 T=  1095. E= -.29239568E+03 F= -.29494256E+03 E0= -.29494256E+03  EK= 0.25469E+01 SP= 0.00E+00 SK= 0.00E+00 mag=      0.000
14 T=  1048. E= -.29239526E+03 F= -.29483414E+03 E0= -.29483414E+03  EK= 0.24389E+01 SP= 0.00E+00 SK= 0.00E+00 mag=     -0.000
15 T=  1001. E= -.29239479E+03 F= -.29472393E+03 E0= -.29472393E+03  EK= 0.23291E+01 SP= 0.00E+00 SK= 0.00E+00 mag=     -0.000
16 T=   956. E= -.29239451E+03 F= -.29461913E+03 E0= -.29461913E+03  EK= 0.22246E+01 SP= 0.00E+00 SK= 0.00E+00 mag=     -0.000
17 T=   915. E= -.29239452E+03 F= -.29452430E+03 E0= -.29452430E+03  EK= 0.21298E+01 SP= 0.00E+00 SK= 0.00E+00 mag=      0.000
18 T=   879. E= -.29239478E+03 F= -.29443942E+03 E0= -.29443942E+03  EK= 0.20446E+01 SP= 0.00E+00 SK= 0.00E+00 mag=      0.000
19 T=   845. E= -.29239509E+03 F= -.29436068E+03 E0= -.29436068E+03  EK= 0.19656E+01 SP= 0.00E+00 SK= 0.00E+00 mag=      0.000
20 T=   811. E= -.29239528E+03 F= -.29428326E+03 E0= -.29428326E+03  EK= 0.18880E+01 SP= 0.00E+00 SK= 0.00E+00 mag=     -0.000
21 T=   777. E= -.29239528E+03 F= -.29420407E+03 E0= -.29420407E+03  EK= 0.18088E+01 SP= 0.00E+00 SK= 0.00E+00 mag=     -0.000
22 T=   743. E= -.29239512E+03 F= -.29412302E+03 E0= -.29412302E+03  EK= 0.17279E+01 SP= 0.00E+00 SK= 0.00E+00 mag=     -0.000
23 T=   708. E= -.29239487E+03 F= -.29404264E+03 E0= -.29404264E+03  EK= 0.16478E+01 SP= 0.00E+00 SK= 0.00E+00 mag=      0.000
24 T=   676. E= -.29239462E+03 F= -.29396684E+03 E0= -.29396684E+03  EK= 0.15722E+01 SP= 0.00E+00 SK= 0.00E+00 mag=      0.000
25 T=   647. E= -.29239445E+03 F= -.29389951E+03 E0= -.29389951E+03  EK= 0.15051E+01 SP= 0.00E+00 SK= 0.00E+00 mag=      0.000
26 T=   623. E= -.29239439E+03 F= -.29384339E+03 E0= -.29384339E+03  EK= 0.14490E+01 SP= 0.00E+00 SK= 0.00E+00 mag=     -0.000
27 T=   604. E= -.29239445E+03 F= -.29379947E+03 E0= -.29379947E+03  EK= 0.14050E+01 SP= 0.00E+00 SK= 0.00E+00 mag=     -0.000
28 T=   590. E= -.29239461E+03 F= -.29376688E+03 E0= -.29376688E+03  EK= 0.13723E+01 SP= 0.00E+00 SK= 0.00E+00 mag=     -0.000
29 T=   579. E= -.29239483E+03 F= -.29374307E+03 E0= -.29374307E+03  EK= 0.13482E+01 SP= 0.00E+00 SK= 0.00E+00 mag=      0.000
30 T=   571. E= -.29239506E+03 F= -.29372451E+03 E0= -.29372451E+03  EK= 0.13295E+01 SP= 0.00E+00 SK= 0.00E+00 mag=      0.000
31 T=   564. E= -.29239518E+03 F= -.29370782E+03 E0= -.29370782E+03  EK= 0.13126E+01 SP= 0.00E+00 SK= 0.00E+00 mag=      0.000
32 T=   557. E= -.29239514E+03 F= -.29369107E+03 E0= -.29369107E+03  EK= 0.12959E+01 SP= 0.00E+00 SK= 0.00E+00 mag=      0.000
33 T=   550. E= -.29239496E+03 F= -.29367473E+03 E0= -.29367473E+03  EK= 0.12798E+01 SP= 0.00E+00 SK= 0.00E+00 mag=     -0.000
34 T=   544. E= -.29239473E+03 F= -.29366145E+03 E0= -.29366145E+03  EK= 0.12667E+01 SP= 0.00E+00 SK= 0.00E+00 mag=     -0.000
35 T=   542. E= -.29239461E+03 F= -.29365458E+03 E0= -.29365458E+03  EK= 0.12600E+01 SP= 0.00E+00 SK= 0.00E+00 mag=      0.000
36 T=   542. E= -.29239465E+03 F= -.29365599E+03 E0= -.29365599E+03  EK= 0.12613E+01 SP= 0.00E+00 SK= 0.00E+00 mag=      0.000
37 T=   546. E= -.29239482E+03 F= -.29366497E+03 E0= -.29366497E+03  EK= 0.12701E+01 SP= 0.00E+00 SK= 0.00E+00 mag=      0.000
38 T=   552. E= -.29239502E+03 F= -.29367871E+03 E0= -.29367871E+03  EK= 0.12837E+01 SP= 0.00E+00 SK= 0.00E+00 mag=     -0.000
39 T=   558. E= -.29239514E+03 F= -.29369402E+03 E0= -.29369402E+03  EK= 0.12989E+01 SP= 0.00E+00 SK= 0.00E+00 mag=     -0.000
40 T=   565. E= -.29239516E+03 F= -.29370876E+03 E0= -.29370876E+03  EK= 0.13136E+01 SP= 0.00E+00 SK= 0.00E+00 mag=     -0.000
41 T=   570. E= -.29239510E+03 F= -.29372216E+03 E0= -.29372216E+03  EK= 0.13271E+01 SP= 0.00E+00 SK= 0.00E+00 mag=     -0.000
42 T=   576. E= -.29239502E+03 F= -.29373461E+03 E0= -.29373461E+03  EK= 0.13396E+01 SP= 0.00E+00 SK= 0.00E+00 mag=      0.000
43 T=   581. E= -.29239493E+03 F= -.29374713E+03 E0= -.29374713E+03  EK= 0.13522E+01 SP= 0.00E+00 SK= 0.00E+00 mag=      0.000
44 T=   587. E= -.29239485E+03 F= -.29376095E+03 E0= -.29376095E+03  EK= 0.13661E+01 SP= 0.00E+00 SK= 0.00E+00 mag=      0.000
45 T=   594. E= -.29239480E+03 F= -.29377717E+03 E0= -.29377717E+03  EK= 0.13824E+01 SP= 0.00E+00 SK= 0.00E+00 mag=     -0.000
46 T=   602. E= -.29239480E+03 F= -.29379642E+03 E0= -.29379642E+03  EK= 0.14016E+01 SP= 0.00E+00 SK= 0.00E+00 mag=     -0.000
47 T=   612. E= -.29239484E+03 F= -.29381850E+03 E0= -.29381850E+03  EK= 0.14237E+01 SP= 0.00E+00 SK= 0.00E+00 mag=     -0.000
48 T=   622. E= -.29239498E+03 F= -.29384240E+03 E0= -.29384240E+03  EK= 0.14474E+01 SP= 0.00E+00 SK= 0.00E+00 mag=      0.000
49 T=   632. E= -.29239512E+03 F= -.29386613E+03 E0= -.29386613E+03  EK= 0.14710E+01 SP= 0.00E+00 SK= 0.00E+00 mag=      0.000
50 T=   641. E= -.29239524E+03 F= -.29388736E+03 E0= -.29388736E+03  EK= 0.14921E+01 SP= 0.00E+00 SK= 0.00E+00 mag=      0.000
51 T=   648. E= -.29239527E+03 F= -.29390413E+03 E0= -.29390413E+03  EK= 0.15089E+01 SP= 0.00E+00 SK= 0.00E+00 mag=     -0.000
52 T=   654. E= -.29239519E+03 F= -.29391583E+03 E0= -.29391583E+03  EK= 0.15206E+01 SP= 0.00E+00 SK= 0.00E+00 mag=     -0.000
53 T=   657. E= -.29239500E+03 F= -.29392367E+03 E0= -.29392367E+03  EK= 0.15287E+01 SP= 0.00E+00 SK= 0.00E+00 mag=     -0.000
54 T=   660. E= -.29239481E+03 F= -.29393022E+03 E0= -.29393022E+03  EK= 0.15354E+01 SP= 0.00E+00 SK= 0.00E+00 mag=      0.000
55 T=   663. E= -.29239472E+03 F= -.29393821E+03 E0= -.29393821E+03  EK= 0.15435E+01 SP= 0.00E+00 SK= 0.00E+00 mag=      0.000
56 T=   668. E= -.29239478E+03 F= -.29394878E+03 E0= -.29394878E+03  EK= 0.15540E+01 SP= 0.00E+00 SK= 0.00E+00 mag=      0.000
57 T=   673. E= -.29239491E+03 F= -.29396090E+03 E0= -.29396090E+03  EK= 0.15660E+01 SP= 0.00E+00 SK= 0.00E+00 mag=      0.000
58 T=   678. E= -.29239504E+03 F= -.29397214E+03 E0= -.29397214E+03  EK= 0.15771E+01 SP= 0.00E+00 SK= 0.00E+00 mag=     -0.000
59 T=   681. E= -.29239510E+03 F= -.29398022E+03 E0= -.29398022E+03  EK= 0.15851E+01 SP= 0.00E+00 SK= 0.00E+00 mag=     -0.000
60 T=   683. E= -.29239507E+03 F= -.29398396E+03 E0= -.29398396E+03  EK= 0.15889E+01 SP= 0.00E+00 SK= 0.00E+00 mag=     -0.000
61 T=   683. E= -.29239500E+03 F= -.29398350E+03 E0= -.29398350E+03  EK= 0.15885E+01 SP= 0.00E+00 SK= 0.00E+00 mag=      0.000
62 T=   681. E= -.29239491E+03 F= -.29397985E+03 E0= -.29397985E+03  EK= 0.15849E+01 SP= 0.00E+00 SK= 0.00E+00 mag=      0.000
63 T=   679. E= -.29239478E+03 F= -.29397454E+03 E0= -.29397454E+03  EK= 0.15798E+01 SP= 0.00E+00 SK= 0.00E+00 mag=      0.000
64 T=   677. E= -.29239464E+03 F= -.29396937E+03 E0= -.29396937E+03  EK= 0.15747E+01 SP= 0.00E+00 SK= 0.00E+00 mag=     -0.000
65 T=   675. E= -.29239452E+03 F= -.29396618E+03 E0= -.29396618E+03  EK= 0.15717E+01 SP= 0.00E+00 SK= 0.00E+00 mag=     -0.000
66 T=   676. E= -.29239447E+03 F= -.29396659E+03 E0= -.29396659E+03  EK= 0.15721E+01 SP= 0.00E+00 SK= 0.00E+00 mag=     -0.000
67 T=   678. E= -.29239447E+03 F= -.29397140E+03 E0= -.29397140E+03  EK= 0.15769E+01 SP= 0.00E+00 SK= 0.00E+00 mag=      0.000
68 T=   682. E= -.29239458E+03 F= -.29398035E+03 E0= -.29398035E+03  EK= 0.15858E+01 SP= 0.00E+00 SK= 0.00E+00 mag=      0.000
69 T=   686. E= -.29239471E+03 F= -.29399185E+03 E0= -.29399185E+03  EK= 0.15971E+01 SP= 0.00E+00 SK= 0.00E+00 mag=      0.000
70 T=   691. E= -.29239487E+03 F= -.29400355E+03 E0= -.29400355E+03  EK= 0.16087E+01 SP= 0.00E+00 SK= 0.00E+00 mag=     -0.000
71 T=   695. E= -.29239494E+03 F= -.29401299E+03 E0= -.29401299E+03  EK= 0.16180E+01 SP= 0.00E+00 SK= 0.00E+00 mag=     -0.000
72 T=   698. E= -.29239489E+03 F= -.29401882E+03 E0= -.29401882E+03  EK= 0.16239E+01 SP= 0.00E+00 SK= 0.00E+00 mag=     -0.000
73 T=   699. E= -.29239469E+03 F= -.29402175E+03 E0= -.29402175E+03  EK= 0.16271E+01 SP= 0.00E+00 SK= 0.00E+00 mag=      0.000
74 T=   701. E= -.29239447E+03 F= -.29402437E+03 E0= -.29402437E+03  EK= 0.16299E+01 SP= 0.00E+00 SK= 0.00E+00 mag=      0.000
75 T=   703. E= -.29239435E+03 F= -.29402971E+03 E0= -.29402971E+03  EK= 0.16354E+01 SP= 0.00E+00 SK= 0.00E+00 mag=      0.000
76 T=   707. E= -.29239441E+03 F= -.29403945E+03 E0= -.29403945E+03  EK= 0.16450E+01 SP= 0.00E+00 SK= 0.00E+00 mag=     -0.000
77 T=   713. E= -.29239460E+03 F= -.29405275E+03 E0= -.29405275E+03  EK= 0.16581E+01 SP= 0.00E+00 SK= 0.00E+00 mag=     -0.000
78 T=   719. E= -.29239477E+03 F= -.29406691E+03 E0= -.29406691E+03  EK= 0.16721E+01 SP= 0.00E+00 SK= 0.00E+00 mag=      0.000
79 T=   724. E= -.29239486E+03 F= -.29407916E+03 E0= -.29407916E+03  EK= 0.16843E+01 SP= 0.00E+00 SK= 0.00E+00 mag=      0.000
80 T=   728. E= -.29239484E+03 F= -.29408782E+03 E0= -.29408782E+03  EK= 0.16930E+01 SP= 0.00E+00 SK= 0.00E+00 mag=      0.000
81 T=   730. E= -.29239476E+03 F= -.29409272E+03 E0= -.29409272E+03  EK= 0.16980E+01 SP= 0.00E+00 SK= 0.00E+00 mag=     -0.000
82 T=   731. E= -.29239469E+03 F= -.29409464E+03 E0= -.29409464E+03  EK= 0.17000E+01 SP= 0.00E+00 SK= 0.00E+00 mag=     -0.000
83 T=   731. E= -.29239461E+03 F= -.29409467E+03 E0= -.29409467E+03  EK= 0.17001E+01 SP= 0.00E+00 SK= 0.00E+00 mag=      0.000
84 T=   730. E= -.29239455E+03 F= -.29409396E+03 E0= -.29409396E+03  EK= 0.16994E+01 SP= 0.00E+00 SK= 0.00E+00 mag=      0.000
85 T=   730. E= -.29239454E+03 F= -.29409343E+03 E0= -.29409343E+03  EK= 0.16989E+01 SP= 0.00E+00 SK= 0.00E+00 mag=      0.000
86 T=   730. E= -.29239456E+03 F= -.29409331E+03 E0= -.29409331E+03  EK= 0.16987E+01 SP= 0.00E+00 SK= 0.00E+00 mag=     -0.000
87 T=   730. E= -.29239464E+03 F= -.29409319E+03 E0= -.29409319E+03  EK= 0.16986E+01 SP= 0.00E+00 SK= 0.00E+00 mag=     -0.000
88 T=   729. E= -.29239477E+03 F= -.29409180E+03 E0= -.29409180E+03  EK= 0.16970E+01 SP= 0.00E+00 SK= 0.00E+00 mag=     -0.000
89 T=   727. E= -.29239490E+03 F= -.29408727E+03 E0= -.29408727E+03  EK= 0.16924E+01 SP= 0.00E+00 SK= 0.00E+00 mag=      0.000
90 T=   723. E= -.29239500E+03 F= -.29407773E+03 E0= -.29407773E+03  EK= 0.16827E+01 SP= 0.00E+00 SK= 0.00E+00 mag=      0.000
91 T=   716. E= -.29239497E+03 F= -.29406199E+03 E0= -.29406199E+03  EK= 0.16670E+01 SP= 0.00E+00 SK= 0.00E+00 mag=      0.000
92 T=   707. E= -.29239480E+03 F= -.29404061E+03 E0= -.29404061E+03  EK= 0.16458E+01 SP= 0.00E+00 SK= 0.00E+00 mag=     -0.000
93 T=   697. E= -.29239461E+03 F= -.29401585E+03 E0= -.29401585E+03  EK= 0.16212E+01 SP= 0.00E+00 SK= 0.00E+00 mag=     -0.000
94 T=   686. E= -.29239450E+03 F= -.29399061E+03 E0= -.29399061E+03  EK= 0.15961E+01 SP= 0.00E+00 SK= 0.00E+00 mag=     -0.000
95 T=   676. E= -.29239454E+03 F= -.29396667E+03 E0= -.29396667E+03  EK= 0.15721E+01 SP= 0.00E+00 SK= 0.00E+00 mag=     -0.000
96 T=   666. E= -.29239472E+03 F= -.29394349E+03 E0= -.29394349E+03  EK= 0.15488E+01 SP= 0.00E+00 SK= 0.00E+00 mag=      0.000
97 T=   655. E= -.29239490E+03 F= -.29391852E+03 E0= -.29391852E+03  EK= 0.15236E+01 SP= 0.00E+00 SK= 0.00E+00 mag=      0.000
98 T=   642. E= -.29239498E+03 F= -.29388914E+03 E0= -.29388914E+03  EK= 0.14942E+01 SP= 0.00E+00 SK= 0.00E+00 mag=      0.000
99 T=   627. E= -.29239491E+03 F= -.29385423E+03 E0= -.29385423E+03  EK= 0.14593E+01 SP= 0.00E+00 SK= 0.00E+00 mag=     -0.000
100 T=   610. E= -.29239475E+03 F= -.29381477E+03 E0= -.29381477E+03  EK= 0.14200E+01 SP= 0.00E+00 SK= 0.00E+00 mag=     -0.000
101 T=   592. E= -.29239456E+03 F= -.29377309E+03 E0= -.29377309E+03  EK= 0.13785E+01 SP= 0.00E+00 SK= 0.00E+00 mag=     -0.000
102 T=   575. E= -.29239443E+03 F= -.29373170E+03 E0= -.29373170E+03  EK= 0.13373E+01 SP= 0.00E+00 SK= 0.00E+00 mag=      0.000
103 T=   558. E= -.29239437E+03 F= -.29369250E+03 E0= -.29369250E+03  EK= 0.12981E+01 SP= 0.00E+00 SK= 0.00E+00 mag=      0.000
104 T=   542. E= -.29239435E+03 F= -.29365649E+03 E0= -.29365649E+03  EK= 0.12621E+01 SP= 0.00E+00 SK= 0.00E+00 mag=      0.000
105 T=   529. E= -.29239432E+03 F= -.29362411E+03 E0= -.29362411E+03  EK= 0.12298E+01 SP= 0.00E+00 SK= 0.00E+00 mag=     -0.000
106 T=   516. E= -.29239432E+03 F= -.29359562E+03 E0= -.29359562E+03  EK= 0.12013E+01 SP= 0.00E+00 SK= 0.00E+00 mag=     -0.000
107 T=   506. E= -.29239432E+03 F= -.29357107E+03 E0= -.29357107E+03  EK= 0.11768E+01 SP= 0.00E+00 SK= 0.00E+00 mag=     -0.000
108 T=   497. E= -.29239434E+03 F= -.29355024E+03 E0= -.29355024E+03  EK= 0.11559E+01 SP= 0.00E+00 SK= 0.00E+00 mag=      0.000
109 T=   489. E= -.29239439E+03 F= -.29353255E+03 E0= -.29353255E+03  EK= 0.11382E+01 SP= 0.00E+00 SK= 0.00E+00 mag=      0.000
110 T=   483. E= -.29239445E+03 F= -.29351712E+03 E0= -.29351712E+03  EK= 0.11227E+01 SP= 0.00E+00 SK= 0.00E+00 mag=      0.000
111 T=   476. E= -.29239448E+03 F= -.29350308E+03 E0= -.29350308E+03  EK= 0.11086E+01 SP= 0.00E+00 SK= 0.00E+00 mag=     -0.000
112 T=   471. E= -.29239444E+03 F= -.29348999E+03 E0= -.29348999E+03  EK= 0.10955E+01 SP= 0.00E+00 SK= 0.00E+00 mag=     -0.000
113 T=   466. E= -.29239433E+03 F= -.29347836E+03 E0= -.29347836E+03  EK= 0.10840E+01 SP= 0.00E+00 SK= 0.00E+00 mag=     -0.000
114 T=   462. E= -.29239418E+03 F= -.29346977E+03 E0= -.29346977E+03  EK= 0.10756E+01 SP= 0.00E+00 SK= 0.00E+00 mag=     -0.000
115 T=   461. E= -.29239407E+03 F= -.29346636E+03 E0= -.29346636E+03  EK= 0.10723E+01 SP= 0.00E+00 SK= 0.00E+00 mag=      0.000
116 T=   462. E= -.29239404E+03 F= -.29346985E+03 E0= -.29346985E+03  EK= 0.10758E+01 SP= 0.00E+00 SK= 0.00E+00 mag=      0.000
117 T=   467. E= -.29239412E+03 F= -.29348061E+03 E0= -.29348061E+03  EK= 0.10865E+01 SP= 0.00E+00 SK= 0.00E+00 mag=      0.000
118 T=   474. E= -.29239423E+03 F= -.29349746E+03 E0= -.29349746E+03  EK= 0.11032E+01 SP= 0.00E+00 SK= 0.00E+00 mag=     -0.000
119 T=   483. E= -.29239432E+03 F= -.29351842E+03 E0= -.29351842E+03  EK= 0.11241E+01 SP= 0.00E+00 SK= 0.00E+00 mag=     -0.000
120 T=   493. E= -.29239436E+03 F= -.29354161E+03 E0= -.29354161E+03  EK= 0.11472E+01 SP= 0.00E+00 SK= 0.00E+00 mag=     -0.000
121 T=   503. E= -.29239438E+03 F= -.29356581E+03 E0= -.29356581E+03  EK= 0.11714E+01 SP= 0.00E+00 SK= 0.00E+00 mag=      0.000
122 T=   514. E= -.29239438E+03 F= -.29359017E+03 E0= -.29359017E+03  EK= 0.11958E+01 SP= 0.00E+00 SK= 0.00E+00 mag=      0.000
123 T=   524. E= -.29239439E+03 F= -.29361406E+03 E0= -.29361406E+03  EK= 0.12197E+01 SP= 0.00E+00 SK= 0.00E+00 mag=      0.000
124 T=   534. E= -.29239437E+03 F= -.29363706E+03 E0= -.29363706E+03  EK= 0.12427E+01 SP= 0.00E+00 SK= 0.00E+00 mag=     -0.000
125 T=   544. E= -.29239432E+03 F= -.29365919E+03 E0= -.29365919E+03  EK= 0.12649E+01 SP= 0.00E+00 SK= 0.00E+00 mag=     -0.000
126 T=   553. E= -.29239425E+03 F= -.29368102E+03 E0= -.29368102E+03  EK= 0.12868E+01 SP= 0.00E+00 SK= 0.00E+00 mag=     -0.000
127 T=   563. E= -.29239414E+03 F= -.29370354E+03 E0= -.29370354E+03  EK= 0.13094E+01 SP= 0.00E+00 SK= 0.00E+00 mag=      0.000
128 T=   573. E= -.29239410E+03 F= -.29372788E+03 E0= -.29372788E+03  EK= 0.13338E+01 SP= 0.00E+00 SK= 0.00E+00 mag=      0.000
129 T=   585. E= -.29239411E+03 F= -.29375461E+03 E0= -.29375461E+03  EK= 0.13605E+01 SP= 0.00E+00 SK= 0.00E+00 mag=      0.000
130 T=   597. E= -.29239420E+03 F= -.29378347E+03 E0= -.29378347E+03  EK= 0.13893E+01 SP= 0.00E+00 SK= 0.00E+00 mag=      0.000
131 T=   610. E= -.29239436E+03 F= -.29381294E+03 E0= -.29381294E+03  EK= 0.14186E+01 SP= 0.00E+00 SK= 0.00E+00 mag=     -0.000
132 T=   621. E= -.29239456E+03 F= -.29384053E+03 E0= -.29384053E+03  EK= 0.14460E+01 SP= 0.00E+00 SK= 0.00E+00 mag=     -0.000
133 T=   631. E= -.29239473E+03 F= -.29386320E+03 E0= -.29386320E+03  EK= 0.14685E+01 SP= 0.00E+00 SK= 0.00E+00 mag=     -0.000
134 T=   638. E= -.29239481E+03 F= -.29387826E+03 E0= -.29387826E+03  EK= 0.14835E+01 SP= 0.00E+00 SK= 0.00E+00 mag=      0.000
135 T=   640. E= -.29239474E+03 F= -.29388446E+03 E0= -.29388446E+03  EK= 0.14897E+01 SP= 0.00E+00 SK= 0.00E+00 mag=      0.000
136 T=   640. E= -.29239452E+03 F= -.29388287E+03 E0= -.29388287E+03  EK= 0.14884E+01 SP= 0.00E+00 SK= 0.00E+00 mag=      0.000
137 T=   637. E= -.29239424E+03 F= -.29387673E+03 E0= -.29387673E+03  EK= 0.14825E+01 SP= 0.00E+00 SK= 0.00E+00 mag=     -0.000
138 T=   634. E= -.29239403E+03 F= -.29387002E+03 E0= -.29387002E+03  EK= 0.14760E+01 SP= 0.00E+00 SK= 0.00E+00 mag=     -0.000
139 T=   633. E= -.29239401E+03 F= -.29386565E+03 E0= -.29386565E+03  EK= 0.14716E+01 SP= 0.00E+00 SK= 0.00E+00 mag=     -0.000
140 T=   632. E= -.29239415E+03 F= -.29386395E+03 E0= -.29386395E+03  EK= 0.14698E+01 SP= 0.00E+00 SK= 0.00E+00 mag=      0.000
141 T=   631. E= -.29239439E+03 F= -.29386265E+03 E0= -.29386265E+03  EK= 0.14683E+01 SP= 0.00E+00 SK= 0.00E+00 mag=      0.000
142 T=   629. E= -.29239459E+03 F= -.29385814E+03 E0= -.29385814E+03  EK= 0.14636E+01 SP= 0.00E+00 SK= 0.00E+00 mag=     -0.000
143 T=   624. E= -.29239467E+03 F= -.29384737E+03 E0= -.29384737E+03  EK= 0.14527E+01 SP= 0.00E+00 SK= 0.00E+00 mag=     -0.000
144 T=   617. E= -.29239456E+03 F= -.29382919E+03 E0= -.29382919E+03  EK= 0.14346E+01 SP= 0.00E+00 SK= 0.00E+00 mag=     -0.000
145 T=   606. E= -.29239436E+03 F= -.29380491E+03 E0= -.29380491E+03  EK= 0.14106E+01 SP= 0.00E+00 SK= 0.00E+00 mag=      0.000
146 T=   595. E= -.29239408E+03 F= -.29377767E+03 E0= -.29377767E+03  EK= 0.13836E+01 SP= 0.00E+00 SK= 0.00E+00 mag=      0.000
147 T=   583. E= -.29239387E+03 F= -.29375142E+03 E0= -.29375142E+03  EK= 0.13576E+01 SP= 0.00E+00 SK= 0.00E+00 mag=      0.000
148 T=   574. E= -.29239373E+03 F= -.29372958E+03 E0= -.29372958E+03  EK= 0.13359E+01 SP= 0.00E+00 SK= 0.00E+00 mag=     -0.000
149 T=   568. E= -.29239372E+03 F= -.29371428E+03 E0= -.29371428E+03  EK= 0.13206E+01 SP= 0.00E+00 SK= 0.00E+00 mag=     -0.000
150 T=   564. E= -.29239384E+03 F= -.29370576E+03 E0= -.29370576E+03  EK= 0.13119E+01 SP= 0.00E+00 SK= 0.00E+00 mag=     -0.000
151 T=   562. E= -.29239406E+03 F= -.29370228E+03 E0= -.29370228E+03  EK= 0.13082E+01 SP= 0.00E+00 SK= 0.00E+00 mag=      0.000
152 T=   561. E= -.29239431E+03 F= -.29370061E+03 E0= -.29370061E+03  EK= 0.13063E+01 SP= 0.00E+00 SK= 0.00E+00 mag=      0.000
153 T=   560. E= -.29239448E+03 F= -.29369712E+03 E0= -.29369712E+03  EK= 0.13026E+01 SP= 0.00E+00 SK= 0.00E+00 mag=      0.000
154 T=   556. E= -.29239451E+03 F= -.29368913E+03 E0= -.29368913E+03  EK= 0.12946E+01 SP= 0.00E+00 SK= 0.00E+00 mag=     -0.000
155 T=   551. E= -.29239434E+03 F= -.29367630E+03 E0= -.29367630E+03  EK= 0.12820E+01 SP= 0.00E+00 SK= 0.00E+00 mag=     -0.000
156 T=   545. E= -.29239401E+03 F= -.29366135E+03 E0= -.29366135E+03  EK= 0.12673E+01 SP= 0.00E+00 SK= 0.00E+00 mag=     -0.000
157 T=   540. E= -.29239369E+03 F= -.29364936E+03 E0= -.29364936E+03  EK= 0.12557E+01 SP= 0.00E+00 SK= 0.00E+00 mag=      0.000
158 T=   538. E= -.29239355E+03 F= -.29364521E+03 E0= -.29364521E+03  EK= 0.12517E+01 SP= 0.00E+00 SK= 0.00E+00 mag=      0.000
159 T=   540. E= -.29239367E+03 F= -.29365106E+03 E0= -.29365106E+03  EK= 0.12574E+01 SP= 0.00E+00 SK= 0.00E+00 mag=     -0.000
160 T=   546. E= -.29239401E+03 F= -.29366494E+03 E0= -.29366494E+03  EK= 0.12709E+01 SP= 0.00E+00 SK= 0.00E+00 mag=     -0.000
161 T=   553. E= -.29239436E+03 F= -.29368186E+03 E0= -.29368186E+03  EK= 0.12875E+01 SP= 0.00E+00 SK= 0.00E+00 mag=     -0.000
162 T=   560. E= -.29239456E+03 F= -.29369650E+03 E0= -.29369650E+03  EK= 0.13019E+01 SP= 0.00E+00 SK= 0.00E+00 mag=      0.000
163 T=   564. E= -.29239456E+03 F= -.29370565E+03 E0= -.29370565E+03  EK= 0.13111E+01 SP= 0.00E+00 SK= 0.00E+00 mag=      0.000
164 T=   565. E= -.29239439E+03 F= -.29370923E+03 E0= -.29370923E+03  EK= 0.13148E+01 SP= 0.00E+00 SK= 0.00E+00 mag=      0.000
165 T=   565. E= -.29239415E+03 F= -.29370964E+03 E0= -.29370964E+03  EK= 0.13155E+01 SP= 0.00E+00 SK= 0.00E+00 mag=     -0.000
166 T=   566. E= -.29239392E+03 F= -.29371067E+03 E0= -.29371067E+03  EK= 0.13168E+01 SP= 0.00E+00 SK= 0.00E+00 mag=     -0.000
167 T=   568. E= -.29239377E+03 F= -.29371598E+03 E0= -.29371598E+03  EK= 0.13222E+01 SP= 0.00E+00 SK= 0.00E+00 mag=      0.000
168 T=   573. E= -.29239373E+03 F= -.29372807E+03 E0= -.29372807E+03  EK= 0.13343E+01 SP= 0.00E+00 SK= 0.00E+00 mag=      0.000
169 T=   582. E= -.29239381E+03 F= -.29374769E+03 E0= -.29374769E+03  EK= 0.13539E+01 SP= 0.00E+00 SK= 0.00E+00 mag=      0.000
170 T=   593. E= -.29239399E+03 F= -.29377364E+03 E0= -.29377364E+03  EK= 0.13797E+01 SP= 0.00E+00 SK= 0.00E+00 mag=     -0.000
171 T=   606. E= -.29239424E+03 F= -.29380308E+03 E0= -.29380308E+03  EK= 0.14088E+01 SP= 0.00E+00 SK= 0.00E+00 mag=     -0.000
172 T=   618. E= -.29239450E+03 F= -.29383208E+03 E0= -.29383208E+03  EK= 0.14376E+01 SP= 0.00E+00 SK= 0.00E+00 mag=     -0.000
173 T=   628. E= -.29239467E+03 F= -.29385665E+03 E0= -.29385665E+03  EK= 0.14620E+01 SP= 0.00E+00 SK= 0.00E+00 mag=      0.000
174 T=   636. E= -.29239468E+03 F= -.29387403E+03 E0= -.29387403E+03  EK= 0.14794E+01 SP= 0.00E+00 SK= 0.00E+00 mag=      0.000
175 T=   640. E= -.29239448E+03 F= -.29388395E+03 E0= -.29388395E+03  EK= 0.14895E+01 SP= 0.00E+00 SK= 0.00E+00 mag=      0.000
176 T=   643. E= -.29239413E+03 F= -.29388913E+03 E0= -.29388913E+03  EK= 0.14950E+01 SP= 0.00E+00 SK= 0.00E+00 mag=     -0.000
177 T=   645. E= -.29239380E+03 F= -.29389456E+03 E0= -.29389456E+03  EK= 0.15008E+01 SP= 0.00E+00 SK= 0.00E+00 mag=     -0.000
178 T=   650. E= -.29239364E+03 F= -.29390533E+03 E0= -.29390533E+03  EK= 0.15117E+01 SP= 0.00E+00 SK= 0.00E+00 mag=     -0.000
179 T=   658. E= -.29239375E+03 F= -.29392390E+03 E0= -.29392390E+03  EK= 0.15301E+01 SP= 0.00E+00 SK= 0.00E+00 mag=      0.000
180 T=   668. E= -.29239407E+03 F= -.29394864E+03 E0= -.29394864E+03  EK= 0.15546E+01 SP= 0.00E+00 SK= 0.00E+00 mag=      0.000
181 T=   679. E= -.29239442E+03 F= -.29397472E+03 E0= -.29397472E+03  EK= 0.15803E+01 SP= 0.00E+00 SK= 0.00E+00 mag=      0.000
182 T=   689. E= -.29239466E+03 F= -.29399667E+03 E0= -.29399667E+03  EK= 0.16020E+01 SP= 0.00E+00 SK= 0.00E+00 mag=     -0.000
183 T=   695. E= -.29239468E+03 F= -.29401082E+03 E0= -.29401082E+03  EK= 0.16161E+01 SP= 0.00E+00 SK= 0.00E+00 mag=     -0.000
184 T=   697. E= -.29239451E+03 F= -.29401660E+03 E0= -.29401660E+03  EK= 0.16221E+01 SP= 0.00E+00 SK= 0.00E+00 mag=     -0.000
185 T=   697. E= -.29239425E+03 F= -.29401619E+03 E0= -.29401619E+03  EK= 0.16219E+01 SP= 0.00E+00 SK= 0.00E+00 mag=      0.000
186 T=   696. E= -.29239400E+03 F= -.29401324E+03 E0= -.29401324E+03  EK= 0.16192E+01 SP= 0.00E+00 SK= 0.00E+00 mag=      0.000
187 T=   695. E= -.29239382E+03 F= -.29401144E+03 E0= -.29401144E+03  EK= 0.16176E+01 SP= 0.00E+00 SK= 0.00E+00 mag=      0.000
188 T=   696. E= -.29239375E+03 F= -.29401344E+03 E0= -.29401344E+03  EK= 0.16197E+01 SP= 0.00E+00 SK= 0.00E+00 mag=     -0.000
189 T=   699. E= -.29239383E+03 F= -.29402025E+03 E0= -.29402025E+03  EK= 0.16264E+01 SP= 0.00E+00 SK= 0.00E+00 mag=     -0.000
190 T=   703. E= -.29239402E+03 F= -.29403082E+03 E0= -.29403082E+03  EK= 0.16368E+01 SP= 0.00E+00 SK= 0.00E+00 mag=     -0.000
191 T=   708. E= -.29239427E+03 F= -.29404238E+03 E0= -.29404238E+03  EK= 0.16481E+01 SP= 0.00E+00 SK= 0.00E+00 mag=      0.000
192 T=   712. E= -.29239454E+03 F= -.29405102E+03 E0= -.29405102E+03  EK= 0.16565E+01 SP= 0.00E+00 SK= 0.00E+00 mag=      0.000
193 T=   713. E= -.29239471E+03 F= -.29405272E+03 E0= -.29405272E+03  EK= 0.16580E+01 SP= 0.00E+00 SK= 0.00E+00 mag=      0.000
194 T=   709. E= -.29239472E+03 F= -.29404493E+03 E0= -.29404493E+03  EK= 0.16502E+01 SP= 0.00E+00 SK= 0.00E+00 mag=     -0.000
195 T=   702. E= -.29239447E+03 F= -.29402787E+03 E0= -.29402787E+03  EK= 0.16334E+01 SP= 0.00E+00 SK= 0.00E+00 mag=     -0.000
196 T=   692. E= -.29239409E+03 F= -.29400520E+03 E0= -.29400520E+03  EK= 0.16111E+01 SP= 0.00E+00 SK= 0.00E+00 mag=     -0.000
197 T=   683. E= -.29239373E+03 F= -.29398273E+03 E0= -.29398273E+03  EK= 0.15890E+01 SP= 0.00E+00 SK= 0.00E+00 mag=      0.000
198 T=   676. E= -.29239363E+03 F= -.29396563E+03 E0= -.29396563E+03  EK= 0.15720E+01 SP= 0.00E+00 SK= 0.00E+00 mag=      0.000
199 T=   671. E= -.29239382E+03 F= -.29395547E+03 E0= -.29395547E+03  EK= 0.15617E+01 SP= 0.00E+00 SK= 0.00E+00 mag=     -0.000
200 T=   668. E= -.29239418E+03 F= -.29394939E+03 E0= -.29394939E+03  EK= 0.15552E+01 SP= 0.00E+00 SK= 0.00E+00 mag=     -0.000
201 T=   665. E= -.29239450E+03 F= -.29394204E+03 E0= -.29394204E+03  EK= 0.15475E+01 SP= 0.00E+00 SK= 0.00E+00 mag=      0.000
202 T=   659. E= -.29239460E+03 F= -.29392865E+03 E0= -.29392865E+03  EK= 0.15341E+01 SP= 0.00E+00 SK= 0.00E+00 mag=      0.000
203 T=   650. E= -.29239448E+03 F= -.29390748E+03 E0= -.29390748E+03  EK= 0.15130E+01 SP= 0.00E+00 SK= 0.00E+00 mag=      0.000
204 T=   639. E= -.29239420E+03 F= -.29388015E+03 E0= -.29388015E+03  EK= 0.14859E+01 SP= 0.00E+00 SK= 0.00E+00 mag=      0.000
205 T=   626. E= -.29239392E+03 F= -.29385067E+03 E0= -.29385067E+03  EK= 0.14567E+01 SP= 0.00E+00 SK= 0.00E+00 mag=     -0.000
206 T=   615. E= -.29239368E+03 F= -.29382363E+03 E0= -.29382363E+03  EK= 0.14300E+01 SP= 0.00E+00 SK= 0.00E+00 mag=     -0.000
207 T=   606. E= -.29239357E+03 F= -.29380298E+03 E0= -.29380298E+03  EK= 0.14094E+01 SP= 0.00E+00 SK= 0.00E+00 mag=      0.000
208 T=   600. E= -.29239359E+03 F= -.29379074E+03 E0= -.29379074E+03  EK= 0.13971E+01 SP= 0.00E+00 SK= 0.00E+00 mag=      0.000
209 T=   599. E= -.29239374E+03 F= -.29378670E+03 E0= -.29378670E+03  EK= 0.13930E+01 SP= 0.00E+00 SK= 0.00E+00 mag=     -0.000
210 T=   599. E= -.29239400E+03 F= -.29378849E+03 E0= -.29378849E+03  EK= 0.13945E+01 SP= 0.00E+00 SK= 0.00E+00 mag=     -0.000
211 T=   601. E= -.29239427E+03 F= -.29379213E+03 E0= -.29379213E+03  EK= 0.13979E+01 SP= 0.00E+00 SK= 0.00E+00 mag=     -0.000
212 T=   601. E= -.29239446E+03 F= -.29379349E+03 E0= -.29379349E+03  EK= 0.13990E+01 SP= 0.00E+00 SK= 0.00E+00 mag=     -0.000
213 T=   600. E= -.29239444E+03 F= -.29378988E+03 E0= -.29378988E+03  EK= 0.13954E+01 SP= 0.00E+00 SK= 0.00E+00 mag=      0.000
214 T=   596. E= -.29239419E+03 F= -.29378163E+03 E0= -.29378163E+03  EK= 0.13874E+01 SP= 0.00E+00 SK= 0.00E+00 mag=      0.000
215 T=   593. E= -.29239381E+03 F= -.29377255E+03 E0= -.29377255E+03  EK= 0.13787E+01 SP= 0.00E+00 SK= 0.00E+00 mag=     -0.000
216 T=   591. E= -.29239351E+03 F= -.29376837E+03 E0= -.29376837E+03  EK= 0.13749E+01 SP= 0.00E+00 SK= 0.00E+00 mag=     -0.000
217 T=   593. E= -.29239348E+03 F= -.29377354E+03 E0= -.29377354E+03  EK= 0.13801E+01 SP= 0.00E+00 SK= 0.00E+00 mag=     -0.000
218 T=   599. E= -.29239373E+03 F= -.29378851E+03 E0= -.29378851E+03  EK= 0.13948E+01 SP= 0.00E+00 SK= 0.00E+00 mag=      0.000
219 T=   608. E= -.29239408E+03 F= -.29380953E+03 E0= -.29380953E+03  EK= 0.14154E+01 SP= 0.00E+00 SK= 0.00E+00 mag=      0.000
220 T=   617. E= -.29239437E+03 F= -.29383096E+03 E0= -.29383096E+03  EK= 0.14366E+01 SP= 0.00E+00 SK= 0.00E+00 mag=      0.000
221 T=   625. E= -.29239449E+03 F= -.29384810E+03 E0= -.29384810E+03  EK= 0.14536E+01 SP= 0.00E+00 SK= 0.00E+00 mag=      0.000
222 T=   629. E= -.29239441E+03 F= -.29385895E+03 E0= -.29385895E+03  EK= 0.14645E+01 SP= 0.00E+00 SK= 0.00E+00 mag=     -0.000
223 T=   632. E= -.29239421E+03 F= -.29386448E+03 E0= -.29386448E+03  EK= 0.14703E+01 SP= 0.00E+00 SK= 0.00E+00 mag=     -0.000
224 T=   633. E= -.29239397E+03 F= -.29386759E+03 E0= -.29386759E+03  EK= 0.14736E+01 SP= 0.00E+00 SK= 0.00E+00 mag=     -0.000
225 T=   635. E= -.29239379E+03 F= -.29387181E+03 E0= -.29387181E+03  EK= 0.14780E+01 SP= 0.00E+00 SK= 0.00E+00 mag=      0.000
226 T=   639. E= -.29239370E+03 F= -.29388005E+03 E0= -.29388005E+03  EK= 0.14863E+01 SP= 0.00E+00 SK= 0.00E+00 mag=      0.000
227 T=   645. E= -.29239372E+03 F= -.29389375E+03 E0= -.29389375E+03  EK= 0.15000E+01 SP= 0.00E+00 SK= 0.00E+00 mag=     -0.000
228 T=   653. E= -.29239387E+03 F= -.29391255E+03 E0= -.29391255E+03  EK= 0.15187E+01 SP= 0.00E+00 SK= 0.00E+00 mag=     -0.000
229 T=   662. E= -.29239408E+03 F= -.29393411E+03 E0= -.29393411E+03  EK= 0.15400E+01 SP= 0.00E+00 SK= 0.00E+00 mag=     -0.000
230 T=   671. E= -.29239434E+03 F= -.29395488E+03 E0= -.29395488E+03  EK= 0.15605E+01 SP= 0.00E+00 SK= 0.00E+00 mag=     -0.000
231 T=   678. E= -.29239448E+03 F= -.29397114E+03 E0= -.29397114E+03  EK= 0.15767E+01 SP= 0.00E+00 SK= 0.00E+00 mag=      0.000
232 T=   682. E= -.29239447E+03 F= -.29398055E+03 E0= -.29398055E+03  EK= 0.15861E+01 SP= 0.00E+00 SK= 0.00E+00 mag=      0.000
233 T=   683. E= -.29239426E+03 F= -.29398326E+03 E0= -.29398326E+03  EK= 0.15890E+01 SP= 0.00E+00 SK= 0.00E+00 mag=      0.000
234 T=   683. E= -.29239396E+03 F= -.29398222E+03 E0= -.29398222E+03  EK= 0.15883E+01 SP= 0.00E+00 SK= 0.00E+00 mag=     -0.000
235 T=   683. E= -.29239372E+03 F= -.29398181E+03 E0= -.29398181E+03  EK= 0.15881E+01 SP= 0.00E+00 SK= 0.00E+00 mag=     -0.000
236 T=   684. E= -.29239367E+03 F= -.29398552E+03 E0= -.29398552E+03  EK= 0.15918E+01 SP= 0.00E+00 SK= 0.00E+00 mag=     -0.000
237 T=   688. E= -.29239379E+03 F= -.29399422E+03 E0= -.29399422E+03  EK= 0.16004E+01 SP= 0.00E+00 SK= 0.00E+00 mag=      0.000
238 T=   693. E= -.29239400E+03 F= -.29400619E+03 E0= -.29400619E+03  EK= 0.16122E+01 SP= 0.00E+00 SK= 0.00E+00 mag=      0.000
239 T=   698. E= -.29239416E+03 F= -.29401835E+03 E0= -.29401835E+03  EK= 0.16242E+01 SP= 0.00E+00 SK= 0.00E+00 mag=      0.000
240 T=   702. E= -.29239424E+03 F= -.29402795E+03 E0= -.29402795E+03  EK= 0.16337E+01 SP= 0.00E+00 SK= 0.00E+00 mag=     -0.000
241 T=   705. E= -.29239420E+03 F= -.29403362E+03 E0= -.29403362E+03  EK= 0.16394E+01 SP= 0.00E+00 SK= 0.00E+00 mag=     -0.000
242 T=   706. E= -.29239407E+03 F= -.29403566E+03 E0= -.29403566E+03  EK= 0.16416E+01 SP= 0.00E+00 SK= 0.00E+00 mag=     -0.000
243 T=   706. E= -.29239390E+03 F= -.29403579E+03 E0= -.29403579E+03  EK= 0.16419E+01 SP= 0.00E+00 SK= 0.00E+00 mag=      0.000
244 T=   706. E= -.29239373E+03 F= -.29403653E+03 E0= -.29403653E+03  EK= 0.16428E+01 SP= 0.00E+00 SK= 0.00E+00 mag=      0.000
245 T=   708. E= -.29239359E+03 F= -.29404041E+03 E0= -.29404041E+03  EK= 0.16468E+01 SP= 0.00E+00 SK= 0.00E+00 mag=     -0.000
246 T=   712. E= -.29239353E+03 F= -.29404932E+03 E0= -.29404932E+03  EK= 0.16558E+01 SP= 0.00E+00 SK= 0.00E+00 mag=     -0.000
247 T=   718. E= -.29239360E+03 F= -.29406381E+03 E0= -.29406381E+03  EK= 0.16702E+01 SP= 0.00E+00 SK= 0.00E+00 mag=     -0.000
248 T=   726. E= -.29239376E+03 F= -.29408287E+03 E0= -.29408287E+03  EK= 0.16891E+01 SP= 0.00E+00 SK= 0.00E+00 mag=     -0.000
249 T=   735. E= -.29239395E+03 F= -.29410408E+03 E0= -.29410408E+03  EK= 0.17101E+01 SP= 0.00E+00 SK= 0.00E+00 mag=      0.000
250 T=   744. E= -.29239411E+03 F= -.29412430E+03 E0= -.29412430E+03  EK= 0.17302E+01 SP= 0.00E+00 SK= 0.00E+00 mag=      0.000
251 T=   751. E= -.29239420E+03 F= -.29414078E+03 E0= -.29414078E+03  EK= 0.17466E+01 SP= 0.00E+00 SK= 0.00E+00 mag=      0.000
252 T=   756. E= -.29239415E+03 F= -.29415212E+03 E0= -.29415212E+03  EK= 0.17580E+01 SP= 0.00E+00 SK= 0.00E+00 mag=     -0.000
253 T=   759. E= -.29239393E+03 F= -.29415919E+03 E0= -.29415919E+03  EK= 0.17653E+01 SP= 0.00E+00 SK= 0.00E+00 mag=     -0.000
254 T=   761. E= -.29239369E+03 F= -.29416496E+03 E0= -.29416496E+03  EK= 0.17713E+01 SP= 0.00E+00 SK= 0.00E+00 mag=     -0.000
255 T=   765. E= -.29239353E+03 F= -.29417283E+03 E0= -.29417283E+03  EK= 0.17793E+01 SP= 0.00E+00 SK= 0.00E+00 mag=      0.000
256 T=   770. E= -.29239358E+03 F= -.29418489E+03 E0= -.29418489E+03  EK= 0.17913E+01 SP= 0.00E+00 SK= 0.00E+00 mag=      0.000
257 T=   777. E= -.29239377E+03 F= -.29420058E+03 E0= -.29420058E+03  EK= 0.18068E+01 SP= 0.00E+00 SK= 0.00E+00 mag=      0.000
258 T=   784. E= -.29239404E+03 F= -.29421706E+03 E0= -.29421706E+03  EK= 0.18230E+01 SP= 0.00E+00 SK= 0.00E+00 mag=     -0.000
259 T=   789. E= -.29239425E+03 F= -.29423053E+03 E0= -.29423053E+03  EK= 0.18363E+01 SP= 0.00E+00 SK= 0.00E+00 mag=     -0.000
260 T=   792. E= -.29239432E+03 F= -.29423789E+03 E0= -.29423789E+03  EK= 0.18436E+01 SP= 0.00E+00 SK= 0.00E+00 mag=     -0.000
261 T=   792. E= -.29239424E+03 F= -.29423793E+03 E0= -.29423793E+03  EK= 0.18437E+01 SP= 0.00E+00 SK= 0.00E+00 mag=      0.000
262 T=   790. E= -.29239406E+03 F= -.29423164E+03 E0= -.29423164E+03  EK= 0.18376E+01 SP= 0.00E+00 SK= 0.00E+00 mag=      0.000
263 T=   786. E= -.29239381E+03 F= -.29422169E+03 E0= -.29422169E+03  EK= 0.18279E+01 SP= 0.00E+00 SK= 0.00E+00 mag=      0.000
264 T=   781. E= -.29239359E+03 F= -.29421157E+03 E0= -.29421157E+03  EK= 0.18180E+01 SP= 0.00E+00 SK= 0.00E+00 mag=     -0.000
265 T=   778. E= -.29239346E+03 F= -.29420446E+03 E0= -.29420446E+03  EK= 0.18110E+01 SP= 0.00E+00 SK= 0.00E+00 mag=     -0.000
266 T=   778. E= -.29239342E+03 F= -.29420246E+03 E0= -.29420246E+03  EK= 0.18090E+01 SP= 0.00E+00 SK= 0.00E+00 mag=     -0.000
267 T=   779. E= -.29239351E+03 F= -.29420590E+03 E0= -.29420590E+03  EK= 0.18124E+01 SP= 0.00E+00 SK= 0.00E+00 mag=      0.000
268 T=   782. E= -.29239369E+03 F= -.29421326E+03 E0= -.29421326E+03  EK= 0.18196E+01 SP= 0.00E+00 SK= 0.00E+00 mag=      0.000
269 T=   785. E= -.29239394E+03 F= -.29422150E+03 E0= -.29422150E+03  EK= 0.18276E+01 SP= 0.00E+00 SK= 0.00E+00 mag=      0.000
270 T=   788. E= -.29239413E+03 F= -.29422677E+03 E0= -.29422677E+03  EK= 0.18326E+01 SP= 0.00E+00 SK= 0.00E+00 mag=     -0.000
271 T=   787. E= -.29239418E+03 F= -.29422600E+03 E0= -.29422600E+03  EK= 0.18318E+01 SP= 0.00E+00 SK= 0.00E+00 mag=     -0.000
272 T=   784. E= -.29239402E+03 F= -.29421827E+03 E0= -.29421827E+03  EK= 0.18243E+01 SP= 0.00E+00 SK= 0.00E+00 mag=     -0.000
273 T=   779. E= -.29239370E+03 F= -.29420581E+03 E0= -.29420581E+03  EK= 0.18121E+01 SP= 0.00E+00 SK= 0.00E+00 mag=      0.000
274 T=   774. E= -.29239334E+03 F= -.29419350E+03 E0= -.29419350E+03  EK= 0.18002E+01 SP= 0.00E+00 SK= 0.00E+00 mag=      0.000
275 T=   771. E= -.29239311E+03 F= -.29418675E+03 E0= -.29418675E+03  EK= 0.17936E+01 SP= 0.00E+00 SK= 0.00E+00 mag=      0.000
276 T=   772. E= -.29239313E+03 F= -.29418892E+03 E0= -.29418892E+03  EK= 0.17958E+01 SP= 0.00E+00 SK= 0.00E+00 mag=     -0.000
277 T=   776. E= -.29239335E+03 F= -.29419960E+03 E0= -.29419960E+03  EK= 0.18062E+01 SP= 0.00E+00 SK= 0.00E+00 mag=     -0.000
278 T=   783. E= -.29239363E+03 F= -.29421537E+03 E0= -.29421537E+03  EK= 0.18217E+01 SP= 0.00E+00 SK= 0.00E+00 mag=     -0.000
279 T=   790. E= -.29239385E+03 F= -.29423189E+03 E0= -.29423189E+03  EK= 0.18380E+01 SP= 0.00E+00 SK= 0.00E+00 mag=      0.000
280 T=   796. E= -.29239388E+03 F= -.29424592E+03 E0= -.29424592E+03  EK= 0.18520E+01 SP= 0.00E+00 SK= 0.00E+00 mag=      0.000
281 T=   801. E= -.29239378E+03 F= -.29425655E+03 E0= -.29425655E+03  EK= 0.18628E+01 SP= 0.00E+00 SK= 0.00E+00 mag=      0.000
282 T=   804. E= -.29239359E+03 F= -.29426505E+03 E0= -.29426505E+03  EK= 0.18715E+01 SP= 0.00E+00 SK= 0.00E+00 mag=     -0.000
283 T=   808. E= -.29239340E+03 F= -.29427409E+03 E0= -.29427409E+03  EK= 0.18807E+01 SP= 0.00E+00 SK= 0.00E+00 mag=     -0.000
284 T=   814. E= -.29239326E+03 F= -.29428657E+03 E0= -.29428657E+03  EK= 0.18933E+01 SP= 0.00E+00 SK= 0.00E+00 mag=     -0.000
285 T=   821. E= -.29239319E+03 F= -.29430457E+03 E0= -.29430457E+03  EK= 0.19114E+01 SP= 0.00E+00 SK= 0.00E+00 mag=      0.000
286 T=   832. E= -.29239326E+03 F= -.29432887E+03 E0= -.29432887E+03  EK= 0.19356E+01 SP= 0.00E+00 SK= 0.00E+00 mag=      0.000
287 T=   845. E= -.29239343E+03 F= -.29435848E+03 E0= -.29435848E+03  EK= 0.19651E+01 SP= 0.00E+00 SK= 0.00E+00 mag=      0.000
288 T=   858. E= -.29239365E+03 F= -.29439085E+03 E0= -.29439085E+03  EK= 0.19972E+01 SP= 0.00E+00 SK= 0.00E+00 mag=     -0.000
289 T=   872. E= -.29239390E+03 F= -.29442240E+03 E0= -.29442240E+03  EK= 0.20285E+01 SP= 0.00E+00 SK= 0.00E+00 mag=     -0.000
290 T=   883. E= -.29239406E+03 F= -.29444933E+03 E0= -.29444933E+03  EK= 0.20553E+01 SP= 0.00E+00 SK= 0.00E+00 mag=     -0.000
291 T=   892. E= -.29239411E+03 F= -.29446904E+03 E0= -.29446904E+03  EK= 0.20749E+01 SP= 0.00E+00 SK= 0.00E+00 mag=      0.000
292 T=   897. E= -.29239399E+03 F= -.29448081E+03 E0= -.29448081E+03  EK= 0.20868E+01 SP= 0.00E+00 SK= 0.00E+00 mag=      0.000
293 T=   899. E= -.29239380E+03 F= -.29448615E+03 E0= -.29448615E+03  EK= 0.20924E+01 SP= 0.00E+00 SK= 0.00E+00 mag=      0.000
294 T=   900. E= -.29239363E+03 F= -.29448795E+03 E0= -.29448795E+03  EK= 0.20943E+01 SP= 0.00E+00 SK= 0.00E+00 mag=     -0.000
295 T=   900. E= -.29239359E+03 F= -.29448871E+03 E0= -.29448871E+03  EK= 0.20951E+01 SP= 0.00E+00 SK= 0.00E+00 mag=     -0.000
296 T=   901. E= -.29239367E+03 F= -.29448915E+03 E0= -.29448915E+03  EK= 0.20955E+01 SP= 0.00E+00 SK= 0.00E+00 mag=      0.000
297 T=   900. E= -.29239385E+03 F= -.29448781E+03 E0= -.29448781E+03  EK= 0.20940E+01 SP= 0.00E+00 SK= 0.00E+00 mag=      0.000
298 T=   897. E= -.29239403E+03 F= -.29448199E+03 E0= -.29448199E+03  EK= 0.20880E+01 SP= 0.00E+00 SK= 0.00E+00 mag=      0.000
299 T=   892. E= -.29239412E+03 F= -.29446892E+03 E0= -.29446892E+03  EK= 0.20748E+01 SP= 0.00E+00 SK= 0.00E+00 mag=     -0.000
300 T=   882. E= -.29239413E+03 F= -.29444702E+03 E0= -.29444702E+03  EK= 0.20529E+01 SP= 0.00E+00 SK= 0.00E+00 mag=     -0.000
301 T=   869. E= -.29239402E+03 F= -.29441619E+03 E0= -.29441619E+03  EK= 0.20222E+01 SP= 0.00E+00 SK= 0.00E+00 mag=     -0.000
302 T=   853. E= -.29239385E+03 F= -.29437778E+03 E0= -.29437778E+03  EK= 0.19839E+01 SP= 0.00E+00 SK= 0.00E+00 mag=      0.000
303 T=   834. E= -.29239366E+03 F= -.29433408E+03 E0= -.29433408E+03  EK= 0.19404E+01 SP= 0.00E+00 SK= 0.00E+00 mag=      0.000
304 T=   814. E= -.29239350E+03 F= -.29428780E+03 E0= -.29428780E+03  EK= 0.18943E+01 SP= 0.00E+00 SK= 0.00E+00 mag=      0.000
305 T=   794. E= -.29239338E+03 F= -.29424139E+03 E0= -.29424139E+03  EK= 0.18480E+01 SP= 0.00E+00 SK= 0.00E+00 mag=     -0.000
306 T=   775. E= -.29239334E+03 F= -.29419671E+03 E0= -.29419671E+03  EK= 0.18034E+01 SP= 0.00E+00 SK= 0.00E+00 mag=     -0.000
307 T=   757. E= -.29239334E+03 F= -.29415459E+03 E0= -.29415459E+03  EK= 0.17613E+01 SP= 0.00E+00 SK= 0.00E+00 mag=     -0.000
308 T=   740. E= -.29239341E+03 F= -.29411483E+03 E0= -.29411483E+03  EK= 0.17214E+01 SP= 0.00E+00 SK= 0.00E+00 mag=      0.000
309 T=   723. E= -.29239351E+03 F= -.29407622E+03 E0= -.29407622E+03  EK= 0.16827E+01 SP= 0.00E+00 SK= 0.00E+00 mag=      0.000
310 T=   706. E= -.29239362E+03 F= -.29403704E+03 E0= -.29403704E+03  EK= 0.16434E+01 SP= 0.00E+00 SK= 0.00E+00 mag=      0.000
311 T=   689. E= -.29239367E+03 F= -.29399560E+03 E0= -.29399560E+03  EK= 0.16019E+01 SP= 0.00E+00 SK= 0.00E+00 mag=      0.000
312 T=   669. E= -.29239362E+03 F= -.29395115E+03 E0= -.29395115E+03  EK= 0.15575E+01 SP= 0.00E+00 SK= 0.00E+00 mag=     -0.000
313 T=   649. E= -.29239344E+03 F= -.29390458E+03 E0= -.29390458E+03  EK= 0.15111E+01 SP= 0.00E+00 SK= 0.00E+00 mag=     -0.000
314 T=   630. E= -.29239316E+03 F= -.29385868E+03 E0= -.29385868E+03  EK= 0.14655E+01 SP= 0.00E+00 SK= 0.00E+00 mag=      0.000
315 T=   612. E= -.29239291E+03 F= -.29381747E+03 E0= -.29381747E+03  EK= 0.14246E+01 SP= 0.00E+00 SK= 0.00E+00 mag=      0.000
316 T=   598. E= -.29239280E+03 F= -.29378454E+03 E0= -.29378454E+03  EK= 0.13917E+01 SP= 0.00E+00 SK= 0.00E+00 mag=      0.000
317 T=   588. E= -.29239286E+03 F= -.29376152E+03 E0= -.29376152E+03  EK= 0.13687E+01 SP= 0.00E+00 SK= 0.00E+00 mag=      0.000
318 T=   582. E= -.29239303E+03 F= -.29374742E+03 E0= -.29374742E+03  EK= 0.13544E+01 SP= 0.00E+00 SK= 0.00E+00 mag=     -0.000
319 T=   579. E= -.29239325E+03 F= -.29373931E+03 E0= -.29373931E+03  EK= 0.13461E+01 SP= 0.00E+00 SK= 0.00E+00 mag=     -0.000
320 T=   576. E= -.29239341E+03 F= -.29373368E+03 E0= -.29373368E+03  EK= 0.13403E+01 SP= 0.00E+00 SK= 0.00E+00 mag=     -0.000
321 T=   574. E= -.29239346E+03 F= -.29372786E+03 E0= -.29372786E+03  EK= 0.13344E+01 SP= 0.00E+00 SK= 0.00E+00 mag=      0.000
322 T=   571. E= -.29239340E+03 F= -.29372091E+03 E0= -.29372091E+03  EK= 0.13275E+01 SP= 0.00E+00 SK= 0.00E+00 mag=      0.000
323 T=   567. E= -.29239326E+03 F= -.29371360E+03 E0= -.29371360E+03  EK= 0.13203E+01 SP= 0.00E+00 SK= 0.00E+00 mag=      0.000
324 T=   565. E= -.29239307E+03 F= -.29370807E+03 E0= -.29370807E+03  EK= 0.13150E+01 SP= 0.00E+00 SK= 0.00E+00 mag=     -0.000
325 T=   565. E= -.29239290E+03 F= -.29370704E+03 E0= -.29370704E+03  EK= 0.13141E+01 SP= 0.00E+00 SK= 0.00E+00 mag=     -0.000
326 T=   567. E= -.29239280E+03 F= -.29371312E+03 E0= -.29371312E+03  EK= 0.13203E+01 SP= 0.00E+00 SK= 0.00E+00 mag=     -0.000
327 T=   574. E= -.29239276E+03 F= -.29372795E+03 E0= -.29372795E+03  EK= 0.13352E+01 SP= 0.00E+00 SK= 0.00E+00 mag=      0.000
328 T=   584. E= -.29239285E+03 F= -.29375187E+03 E0= -.29375187E+03  EK= 0.13590E+01 SP= 0.00E+00 SK= 0.00E+00 mag=      0.000
329 T=   598. E= -.29239303E+03 F= -.29378344E+03 E0= -.29378344E+03  EK= 0.13904E+01 SP= 0.00E+00 SK= 0.00E+00 mag=     -0.000
330 T=   613. E= -.29239327E+03 F= -.29381972E+03 E0= -.29381972E+03  EK= 0.14264E+01 SP= 0.00E+00 SK= 0.00E+00 mag=     -0.000
331 T=   629. E= -.29239351E+03 F= -.29385681E+03 E0= -.29385681E+03  EK= 0.14633E+01 SP= 0.00E+00 SK= 0.00E+00 mag=     -0.000
332 T=   644. E= -.29239365E+03 F= -.29389095E+03 E0= -.29389095E+03  EK= 0.14973E+01 SP= 0.00E+00 SK= 0.00E+00 mag=      0.000
333 T=   656. E= -.29239360E+03 F= -.29391999E+03 E0= -.29391999E+03  EK= 0.15264E+01 SP= 0.00E+00 SK= 0.00E+00 mag=      0.000
334 T=   667. E= -.29239337E+03 F= -.29394447E+03 E0= -.29394447E+03  EK= 0.15511E+01 SP= 0.00E+00 SK= 0.00E+00 mag=      0.000
335 T=   677. E= -.29239306E+03 F= -.29396768E+03 E0= -.29396768E+03  EK= 0.15746E+01 SP= 0.00E+00 SK= 0.00E+00 mag=     -0.000
336 T=   688. E= -.29239285E+03 F= -.29399399E+03 E0= -.29399399E+03  EK= 0.16011E+01 SP= 0.00E+00 SK= 0.00E+00 mag=     -0.000
337 T=   702. E= -.29239288E+03 F= -.29402640E+03 E0= -.29402640E+03  EK= 0.16335E+01 SP= 0.00E+00 SK= 0.00E+00 mag=     -0.000
338 T=   718. E= -.29239310E+03 F= -.29406468E+03 E0= -.29406468E+03  EK= 0.16716E+01 SP= 0.00E+00 SK= 0.00E+00 mag=      0.000
339 T=   736. E= -.29239336E+03 F= -.29410568E+03 E0= -.29410568E+03  EK= 0.17123E+01 SP= 0.00E+00 SK= 0.00E+00 mag=      0.000
340 T=   753. E= -.29239355E+03 F= -.29414529E+03 E0= -.29414529E+03  EK= 0.17517E+01 SP= 0.00E+00 SK= 0.00E+00 mag=      0.000
341 T=   768. E= -.29239360E+03 F= -.29418035E+03 E0= -.29418035E+03  EK= 0.17868E+01 SP= 0.00E+00 SK= 0.00E+00 mag=     -0.000
342 T=   781. E= -.29239351E+03 F= -.29420967E+03 E0= -.29420967E+03  EK= 0.18162E+01 SP= 0.00E+00 SK= 0.00E+00 mag=     -0.000
343 T=   791. E= -.29239337E+03 F= -.29423402E+03 E0= -.29423402E+03  EK= 0.18407E+01 SP= 0.00E+00 SK= 0.00E+00 mag=     -0.000
344 T=   800. E= -.29239322E+03 F= -.29425539E+03 E0= -.29425539E+03  EK= 0.18622E+01 SP= 0.00E+00 SK= 0.00E+00 mag=      0.000
345 T=   809. E= -.29239310E+03 F= -.29427622E+03 E0= -.29427622E+03  EK= 0.18831E+01 SP= 0.00E+00 SK= 0.00E+00 mag=      0.000
346 T=   819. E= -.29239306E+03 F= -.29429835E+03 E0= -.29429835E+03  EK= 0.19053E+01 SP= 0.00E+00 SK= 0.00E+00 mag=      0.000
347 T=   829. E= -.29239314E+03 F= -.29432237E+03 E0= -.29432237E+03  EK= 0.19292E+01 SP= 0.00E+00 SK= 0.00E+00 mag=     -0.000
348 T=   840. E= -.29239332E+03 F= -.29434729E+03 E0= -.29434729E+03  EK= 0.19540E+01 SP= 0.00E+00 SK= 0.00E+00 mag=     -0.000
349 T=   850. E= -.29239357E+03 F= -.29437054E+03 E0= -.29437054E+03  EK= 0.19770E+01 SP= 0.00E+00 SK= 0.00E+00 mag=      0.000
350 T=   857. E= -.29239378E+03 F= -.29438878E+03 E0= -.29438878E+03  EK= 0.19950E+01 SP= 0.00E+00 SK= 0.00E+00 mag=      0.000
351 T=   862. E= -.29239383E+03 F= -.29439916E+03 E0= -.29439916E+03  EK= 0.20053E+01 SP= 0.00E+00 SK= 0.00E+00 mag=      0.000
352 T=   863. E= -.29239370E+03 F= -.29440082E+03 E0= -.29440082E+03  EK= 0.20071E+01 SP= 0.00E+00 SK= 0.00E+00 mag=     -0.000
353 T=   861. E= -.29239343E+03 F= -.29439558E+03 E0= -.29439558E+03  EK= 0.20022E+01 SP= 0.00E+00 SK= 0.00E+00 mag=     -0.000
354 T=   857. E= -.29239317E+03 F= -.29438736E+03 E0= -.29438736E+03  EK= 0.19942E+01 SP= 0.00E+00 SK= 0.00E+00 mag=     -0.000
355 T=   854. E= -.29239306E+03 F= -.29437996E+03 E0= -.29437996E+03  EK= 0.19869E+01 SP= 0.00E+00 SK= 0.00E+00 mag=      0.000
356 T=   852. E= -.29239321E+03 F= -.29437463E+03 E0= -.29437463E+03  EK= 0.19814E+01 SP= 0.00E+00 SK= 0.00E+00 mag=      0.000
357 T=   849. E= -.29239348E+03 F= -.29436907E+03 E0= -.29436907E+03  EK= 0.19756E+01 SP= 0.00E+00 SK= 0.00E+00 mag=      0.000
358 T=   845. E= -.29239367E+03 F= -.29435941E+03 E0= -.29435941E+03  EK= 0.19657E+01 SP= 0.00E+00 SK= 0.00E+00 mag=     -0.000
359 T=   838. E= -.29239366E+03 F= -.29434280E+03 E0= -.29434280E+03  EK= 0.19491E+01 SP= 0.00E+00 SK= 0.00E+00 mag=     -0.000
360 T=   828. E= -.29239351E+03 F= -.29431908E+03 E0= -.29431908E+03  EK= 0.19256E+01 SP= 0.00E+00 SK= 0.00E+00 mag=     -0.000
361 T=   815. E= -.29239324E+03 F= -.29429060E+03 E0= -.29429060E+03  EK= 0.18974E+01 SP= 0.00E+00 SK= 0.00E+00 mag=     -0.000
362 T=   803. E= -.29239302E+03 F= -.29426096E+03 E0= -.29426096E+03  EK= 0.18679E+01 SP= 0.00E+00 SK= 0.00E+00 mag=      0.000
363 T=   791. E= -.29239288E+03 F= -.29423352E+03 E0= -.29423352E+03  EK= 0.18406E+01 SP= 0.00E+00 SK= 0.00E+00 mag=      0.000
364 T=   781. E= -.29239281E+03 F= -.29421067E+03 E0= -.29421067E+03  EK= 0.18179E+01 SP= 0.00E+00 SK= 0.00E+00 mag=      0.000
365 T=   774. E= -.29239284E+03 F= -.29419347E+03 E0= -.29419347E+03  EK= 0.18006E+01 SP= 0.00E+00 SK= 0.00E+00 mag=     -0.000
366 T=   769. E= -.29239294E+03 F= -.29418148E+03 E0= -.29418148E+03  EK= 0.17885E+01 SP= 0.00E+00 SK= 0.00E+00 mag=     -0.000
367 T=   765. E= -.29239310E+03 F= -.29417293E+03 E0= -.29417293E+03  EK= 0.17798E+01 SP= 0.00E+00 SK= 0.00E+00 mag=     -0.000
368 T=   761. E= -.29239331E+03 F= -.29416498E+03 E0= -.29416498E+03  EK= 0.17717E+01 SP= 0.00E+00 SK= 0.00E+00 mag=      0.000
369 T=   757. E= -.29239345E+03 F= -.29415462E+03 E0= -.29415462E+03  EK= 0.17612E+01 SP= 0.00E+00 SK= 0.00E+00 mag=      0.000
370 T=   751. E= -.29239345E+03 F= -.29413981E+03 E0= -.29413981E+03  EK= 0.17464E+01 SP= 0.00E+00 SK= 0.00E+00 mag=      0.000
371 T=   742. E= -.29239326E+03 F= -.29412072E+03 E0= -.29412072E+03  EK= 0.17275E+01 SP= 0.00E+00 SK= 0.00E+00 mag=     -0.000
372 T=   734. E= -.29239295E+03 F= -.29410030E+03 E0= -.29410030E+03  EK= 0.17074E+01 SP= 0.00E+00 SK= 0.00E+00 mag=     -0.000
373 T=   727. E= -.29239269E+03 F= -.29408335E+03 E0= -.29408335E+03  EK= 0.16907E+01 SP= 0.00E+00 SK= 0.00E+00 mag=     -0.000
374 T=   723. E= -.29239267E+03 F= -.29407387E+03 E0= -.29407387E+03  EK= 0.16812E+01 SP= 0.00E+00 SK= 0.00E+00 mag=      0.000
375 T=   722. E= -.29239294E+03 F= -.29407240E+03 E0= -.29407240E+03  EK= 0.16795E+01 SP= 0.00E+00 SK= 0.00E+00 mag=      0.000
376 T=   723. E= -.29239331E+03 F= -.29407515E+03 E0= -.29407515E+03  EK= 0.16818E+01 SP= 0.00E+00 SK= 0.00E+00 mag=      0.000
377 T=   723. E= -.29239364E+03 F= -.29407620E+03 E0= -.29407620E+03  EK= 0.16826E+01 SP= 0.00E+00 SK= 0.00E+00 mag=     -0.000
378 T=   721. E= -.29239375E+03 F= -.29407047E+03 E0= -.29407047E+03  EK= 0.16767E+01 SP= 0.00E+00 SK= 0.00E+00 mag=     -0.000
379 T=   714. E= -.29239363E+03 F= -.29405602E+03 E0= -.29405602E+03  EK= 0.16624E+01 SP= 0.00E+00 SK= 0.00E+00 mag=     -0.000
380 T=   705. E= -.29239336E+03 F= -.29403446E+03 E0= -.29403446E+03  EK= 0.16411E+01 SP= 0.00E+00 SK= 0.00E+00 mag=      0.000
381 T=   695. E= -.29239310E+03 F= -.29400956E+03 E0= -.29400956E+03  EK= 0.16165E+01 SP= 0.00E+00 SK= 0.00E+00 mag=      0.000
382 T=   684. E= -.29239291E+03 F= -.29398544E+03 E0= -.29398544E+03  EK= 0.15925E+01 SP= 0.00E+00 SK= 0.00E+00 mag=     -0.000
383 T=   676. E= -.29239284E+03 F= -.29396518E+03 E0= -.29396518E+03  EK= 0.15723E+01 SP= 0.00E+00 SK= 0.00E+00 mag=     -0.000
384 T=   669. E= -.29239292E+03 F= -.29394984E+03 E0= -.29394984E+03  EK= 0.15569E+01 SP= 0.00E+00 SK= 0.00E+00 mag=     -0.000
385 T=   664. E= -.29239309E+03 F= -.29393825E+03 E0= -.29393825E+03  EK= 0.15452E+01 SP= 0.00E+00 SK= 0.00E+00 mag=      0.000
386 T=   659. E= -.29239333E+03 F= -.29392758E+03 E0= -.29392758E+03  EK= 0.15343E+01 SP= 0.00E+00 SK= 0.00E+00 mag=      0.000
387 T=   653. E= -.29239355E+03 F= -.29391402E+03 E0= -.29391402E+03  EK= 0.15205E+01 SP= 0.00E+00 SK= 0.00E+00 mag=      0.000
388 T=   645. E= -.29239367E+03 F= -.29389419E+03 E0= -.29389419E+03  EK= 0.15005E+01 SP= 0.00E+00 SK= 0.00E+00 mag=     -0.000
389 T=   633. E= -.29239361E+03 F= -.29386658E+03 E0= -.29386658E+03  EK= 0.14730E+01 SP= 0.00E+00 SK= 0.00E+00 mag=     -0.000
390 T=   619. E= -.29239332E+03 F= -.29383251E+03 E0= -.29383251E+03  EK= 0.14392E+01 SP= 0.00E+00 SK= 0.00E+00 mag=     -0.000
391 T=   603. E= -.29239291E+03 F= -.29379647E+03 E0= -.29379647E+03  EK= 0.14036E+01 SP= 0.00E+00 SK= 0.00E+00 mag=      0.000
392 T=   590. E= -.29239259E+03 F= -.29376473E+03 E0= -.29376473E+03  EK= 0.13721E+01 SP= 0.00E+00 SK= 0.00E+00 mag=      0.000
393 T=   580. E= -.29239252E+03 F= -.29374232E+03 E0= -.29374232E+03  EK= 0.13498E+01 SP= 0.00E+00 SK= 0.00E+00 mag=      0.000
394 T=   575. E= -.29239273E+03 F= -.29373037E+03 E0= -.29373037E+03  EK= 0.13376E+01 SP= 0.00E+00 SK= 0.00E+00 mag=     -0.000
395 T=   573. E= -.29239310E+03 F= -.29372556E+03 E0= -.29372556E+03  EK= 0.13325E+01 SP= 0.00E+00 SK= 0.00E+00 mag=     -0.000
396 T=   571. E= -.29239340E+03 F= -.29372237E+03 E0= -.29372237E+03  EK= 0.13290E+01 SP= 0.00E+00 SK= 0.00E+00 mag=     -0.000
397 T=   568. E= -.29239350E+03 F= -.29371607E+03 E0= -.29371607E+03  EK= 0.13226E+01 SP= 0.00E+00 SK= 0.00E+00 mag=      0.000
398 T=   564. E= -.29239339E+03 F= -.29370476E+03 E0= -.29370476E+03  EK= 0.13114E+01 SP= 0.00E+00 SK= 0.00E+00 mag=      0.000
399 T=   557. E= -.29239317E+03 F= -.29368976E+03 E0= -.29368976E+03  EK= 0.12966E+01 SP= 0.00E+00 SK= 0.00E+00 mag=      0.000
400 T=   551. E= -.29239289E+03 F= -.29367457E+03 E0= -.29367457E+03  EK= 0.12817E+01 SP= 0.00E+00 SK= 0.00E+00 mag=     -0.000
401 T=   546. E= -.29239265E+03 F= -.29366356E+03 E0= -.29366356E+03  EK= 0.12709E+01 SP= 0.00E+00 SK= 0.00E+00 mag=     -0.000
402 T=   545. E= -.29239250E+03 F= -.29366056E+03 E0= -.29366056E+03  EK= 0.12681E+01 SP= 0.00E+00 SK= 0.00E+00 mag=     -0.000
403 T=   548. E= -.29239255E+03 F= -.29366756E+03 E0= -.29366756E+03  EK= 0.12750E+01 SP= 0.00E+00 SK= 0.00E+00 mag=      0.000
404 T=   555. E= -.29239277E+03 F= -.29368371E+03 E0= -.29368371E+03  EK= 0.12909E+01 SP= 0.00E+00 SK= 0.00E+00 mag=      0.000
405 T=   564. E= -.29239312E+03 F= -.29370531E+03 E0= -.29370531E+03  EK= 0.13122E+01 SP= 0.00E+00 SK= 0.00E+00 mag=      0.000
406 T=   573. E= -.29239349E+03 F= -.29372678E+03 E0= -.29372678E+03  EK= 0.13333E+01 SP= 0.00E+00 SK= 0.00E+00 mag=     -0.000
407 T=   580. E= -.29239370E+03 F= -.29374248E+03 E0= -.29374248E+03  EK= 0.13488E+01 SP= 0.00E+00 SK= 0.00E+00 mag=     -0.000
408 T=   583. E= -.29239368E+03 F= -.29374909E+03 E0= -.29374909E+03  EK= 0.13554E+01 SP= 0.00E+00 SK= 0.00E+00 mag=     -0.000
409 T=   582. E= -.29239337E+03 F= -.29374720E+03 E0= -.29374720E+03  EK= 0.13538E+01 SP= 0.00E+00 SK= 0.00E+00 mag=     -0.000
410 T=   580. E= -.29239294E+03 F= -.29374151E+03 E0= -.29374151E+03  EK= 0.13486E+01 SP= 0.00E+00 SK= 0.00E+00 mag=      0.000
411 T=   578. E= -.29239262E+03 F= -.29373850E+03 E0= -.29373850E+03  EK= 0.13459E+01 SP= 0.00E+00 SK= 0.00E+00 mag=      0.000
412 T=   580. E= -.29239260E+03 F= -.29374284E+03 E0= -.29374284E+03  EK= 0.13502E+01 SP= 0.00E+00 SK= 0.00E+00 mag=     -0.000
413 T=   585. E= -.29239288E+03 F= -.29375464E+03 E0= -.29375464E+03  EK= 0.13618E+01 SP= 0.00E+00 SK= 0.00E+00 mag=     -0.000
414 T=   592. E= -.29239323E+03 F= -.29376969E+03 E0= -.29376969E+03  EK= 0.13765E+01 SP= 0.00E+00 SK= 0.00E+00 mag=     -0.000
415 T=   597. E= -.29239349E+03 F= -.29378227E+03 E0= -.29378227E+03  EK= 0.13888E+01 SP= 0.00E+00 SK= 0.00E+00 mag=      0.000
416 T=   599. E= -.29239356E+03 F= -.29378808E+03 E0= -.29378808E+03  EK= 0.13945E+01 SP= 0.00E+00 SK= 0.00E+00 mag=      0.000
417 T=   598. E= -.29239345E+03 F= -.29378573E+03 E0= -.29378573E+03  EK= 0.13923E+01 SP= 0.00E+00 SK= 0.00E+00 mag=      0.000
418 T=   595. E= -.29239322E+03 F= -.29377662E+03 E0= -.29377662E+03  EK= 0.13834E+01 SP= 0.00E+00 SK= 0.00E+00 mag=     -0.000
419 T=   589. E= -.29239297E+03 F= -.29376394E+03 E0= -.29376394E+03  EK= 0.13710E+01 SP= 0.00E+00 SK= 0.00E+00 mag=     -0.000
420 T=   584. E= -.29239273E+03 F= -.29375150E+03 E0= -.29375150E+03  EK= 0.13588E+01 SP= 0.00E+00 SK= 0.00E+00 mag=     -0.000
421 T=   580. E= -.29239256E+03 F= -.29374293E+03 E0= -.29374293E+03  EK= 0.13504E+01 SP= 0.00E+00 SK= 0.00E+00 mag=      0.000
422 T=   579. E= -.29239253E+03 F= -.29374073E+03 E0= -.29374073E+03  EK= 0.13482E+01 SP= 0.00E+00 SK= 0.00E+00 mag=      0.000
423 T=   581. E= -.29239265E+03 F= -.29374535E+03 E0= -.29374535E+03  EK= 0.13527E+01 SP= 0.00E+00 SK= 0.00E+00 mag=      0.000
424 T=   585. E= -.29239288E+03 F= -.29375482E+03 E0= -.29375482E+03  EK= 0.13619E+01 SP= 0.00E+00 SK= 0.00E+00 mag=     -0.000
425 T=   590. E= -.29239316E+03 F= -.29376519E+03 E0= -.29376519E+03  EK= 0.13720E+01 SP= 0.00E+00 SK= 0.00E+00 mag=     -0.000
426 T=   593. E= -.29239333E+03 F= -.29377199E+03 E0= -.29377199E+03  EK= 0.13787E+01 SP= 0.00E+00 SK= 0.00E+00 mag=     -0.000
427 T=   593. E= -.29239326E+03 F= -.29377248E+03 E0= -.29377248E+03  EK= 0.13792E+01 SP= 0.00E+00 SK= 0.00E+00 mag=      0.000
428 T=   591. E= -.29239298E+03 F= -.29376742E+03 E0= -.29376742E+03  EK= 0.13744E+01 SP= 0.00E+00 SK= 0.00E+00 mag=      0.000
429 T=   588. E= -.29239259E+03 F= -.29376090E+03 E0= -.29376090E+03  EK= 0.13683E+01 SP= 0.00E+00 SK= 0.00E+00 mag=      0.000
430 T=   587. E= -.29239233E+03 F= -.29375854E+03 E0= -.29375854E+03  EK= 0.13662E+01 SP= 0.00E+00 SK= 0.00E+00 mag=     -0.000
431 T=   590. E= -.29239230E+03 F= -.29376436E+03 E0= -.29376436E+03  EK= 0.13721E+01 SP= 0.00E+00 SK= 0.00E+00 mag=     -0.000
432 T=   596. E= -.29239249E+03 F= -.29377883E+03 E0= -.29377883E+03  EK= 0.13863E+01 SP= 0.00E+00 SK= 0.00E+00 mag=      0.000
433 T=   604. E= -.29239276E+03 F= -.29379908E+03 E0= -.29379908E+03  EK= 0.14063E+01 SP= 0.00E+00 SK= 0.00E+00 mag=      0.000
434 T=   614. E= -.29239295E+03 F= -.29382112E+03 E0= -.29382112E+03  EK= 0.14282E+01 SP= 0.00E+00 SK= 0.00E+00 mag=      0.000
435 T=   623. E= -.29239299E+03 F= -.29384190E+03 E0= -.29384190E+03  EK= 0.14489E+01 SP= 0.00E+00 SK= 0.00E+00 mag=     -0.000
436 T=   631. E= -.29239293E+03 F= -.29386038E+03 E0= -.29386038E+03  EK= 0.14674E+01 SP= 0.00E+00 SK= 0.00E+00 mag=     -0.000
437 T=   638. E= -.29239281E+03 F= -.29387717E+03 E0= -.29387717E+03  EK= 0.14844E+01 SP= 0.00E+00 SK= 0.00E+00 mag=     -0.000
438 T=   645. E= -.29239266E+03 F= -.29389397E+03 E0= -.29389397E+03  EK= 0.15013E+01 SP= 0.00E+00 SK= 0.00E+00 mag=      0.000
439 T=   653. E= -.29239254E+03 F= -.29391276E+03 E0= -.29391276E+03  EK= 0.15202E+01 SP= 0.00E+00 SK= 0.00E+00 mag=      0.000
440 T=   663. E= -.29239246E+03 F= -.29393537E+03 E0= -.29393537E+03  EK= 0.15429E+01 SP= 0.00E+00 SK= 0.00E+00 mag=      0.000
441 T=   675. E= -.29239245E+03 F= -.29396302E+03 E0= -.29396302E+03  EK= 0.15706E+01 SP= 0.00E+00 SK= 0.00E+00 mag=     -0.000
442 T=   689. E= -.29239255E+03 F= -.29399574E+03 E0= -.29399574E+03  EK= 0.16032E+01 SP= 0.00E+00 SK= 0.00E+00 mag=     -0.000
443 T=   704. E= -.29239275E+03 F= -.29403175E+03 E0= -.29403175E+03  EK= 0.16390E+01 SP= 0.00E+00 SK= 0.00E+00 mag=     -0.000
444 T=   720. E= -.29239303E+03 F= -.29406762E+03 E0= -.29406762E+03  EK= 0.16746E+01 SP= 0.00E+00 SK= 0.00E+00 mag=      0.000
445 T=   733. E= -.29239329E+03 F= -.29409879E+03 E0= -.29409879E+03  EK= 0.17055E+01 SP= 0.00E+00 SK= 0.00E+00 mag=      0.000
446 T=   743. E= -.29239338E+03 F= -.29412132E+03 E0= -.29412132E+03  EK= 0.17279E+01 SP= 0.00E+00 SK= 0.00E+00 mag=      0.000
447 T=   748. E= -.29239325E+03 F= -.29413374E+03 E0= -.29413374E+03  EK= 0.17405E+01 SP= 0.00E+00 SK= 0.00E+00 mag=     -0.000
448 T=   750. E= -.29239294E+03 F= -.29413782E+03 E0= -.29413782E+03  EK= 0.17449E+01 SP= 0.00E+00 SK= 0.00E+00 mag=     -0.000
449 T=   750. E= -.29239260E+03 F= -.29413790E+03 E0= -.29413790E+03  EK= 0.17453E+01 SP= 0.00E+00 SK= 0.00E+00 mag=     -0.000
450 T=   751. E= -.29239242E+03 F= -.29413868E+03 E0= -.29413868E+03  EK= 0.17463E+01 SP= 0.00E+00 SK= 0.00E+00 mag=      0.000
451 T=   752. E= -.29239247E+03 F= -.29414273E+03 E0= -.29414273E+03  EK= 0.17503E+01 SP= 0.00E+00 SK= 0.00E+00 mag=      0.000
452 T=   755. E= -.29239268E+03 F= -.29414925E+03 E0= -.29414925E+03  EK= 0.17566E+01 SP= 0.00E+00 SK= 0.00E+00 mag=      0.000
453 T=   757. E= -.29239289E+03 F= -.29415514E+03 E0= -.29415514E+03  EK= 0.17622E+01 SP= 0.00E+00 SK= 0.00E+00 mag=     -0.000
454 T=   758. E= -.29239300E+03 F= -.29415694E+03 E0= -.29415694E+03  EK= 0.17639E+01 SP= 0.00E+00 SK= 0.00E+00 mag=     -0.000
455 T=   756. E= -.29239298E+03 F= -.29415265E+03 E0= -.29415265E+03  EK= 0.17597E+01 SP= 0.00E+00 SK= 0.00E+00 mag=     -0.000
456 T=   752. E= -.29239287E+03 F= -.29414225E+03 E0= -.29414225E+03  EK= 0.17494E+01 SP= 0.00E+00 SK= 0.00E+00 mag=      0.000
457 T=   746. E= -.29239269E+03 F= -.29412731E+03 E0= -.29412731E+03  EK= 0.17346E+01 SP= 0.00E+00 SK= 0.00E+00 mag=      0.000
458 T=   738. E= -.29239250E+03 F= -.29411028E+03 E0= -.29411028E+03  EK= 0.17178E+01 SP= 0.00E+00 SK= 0.00E+00 mag=      0.000
459 T=   731. E= -.29239234E+03 F= -.29409382E+03 E0= -.29409382E+03  EK= 0.17015E+01 SP= 0.00E+00 SK= 0.00E+00 mag=     -0.000
460 T=   726. E= -.29239220E+03 F= -.29408034E+03 E0= -.29408034E+03  EK= 0.16881E+01 SP= 0.00E+00 SK= 0.00E+00 mag=     -0.000
461 T=   722. E= -.29239213E+03 F= -.29407173E+03 E0= -.29407173E+03  EK= 0.16796E+01 SP= 0.00E+00 SK= 0.00E+00 mag=     -0.000
462 T=   721. E= -.29239217E+03 F= -.29406888E+03 E0= -.29406888E+03  EK= 0.16767E+01 SP= 0.00E+00 SK= 0.00E+00 mag=      0.000
463 T=   722. E= -.29239233E+03 F= -.29407119E+03 E0= -.29407119E+03  EK= 0.16789E+01 SP= 0.00E+00 SK= 0.00E+00 mag=      0.000
464 T=   724. E= -.29239255E+03 F= -.29407641E+03 E0= -.29407641E+03  EK= 0.16839E+01 SP= 0.00E+00 SK= 0.00E+00 mag=      0.000
465 T=   726. E= -.29239277E+03 F= -.29408120E+03 E0= -.29408120E+03  EK= 0.16884E+01 SP= 0.00E+00 SK= 0.00E+00 mag=     -0.000
466 T=   726. E= -.29239287E+03 F= -.29408228E+03 E0= -.29408228E+03  EK= 0.16894E+01 SP= 0.00E+00 SK= 0.00E+00 mag=     -0.000
467 T=   724. E= -.29239279E+03 F= -.29407819E+03 E0= -.29407819E+03  EK= 0.16854E+01 SP= 0.00E+00 SK= 0.00E+00 mag=     -0.000
468 T=   721. E= -.29239252E+03 F= -.29407024E+03 E0= -.29407024E+03  EK= 0.16777E+01 SP= 0.00E+00 SK= 0.00E+00 mag=      0.000
469 T=   718. E= -.29239223E+03 F= -.29406230E+03 E0= -.29406230E+03  EK= 0.16701E+01 SP= 0.00E+00 SK= 0.00E+00 mag=      0.000
470 T=   716. E= -.29239208E+03 F= -.29405873E+03 E0= -.29405873E+03  EK= 0.16667E+01 SP= 0.00E+00 SK= 0.00E+00 mag=      0.000
471 T=   718. E= -.29239213E+03 F= -.29406185E+03 E0= -.29406185E+03  EK= 0.16697E+01 SP= 0.00E+00 SK= 0.00E+00 mag=     -0.000
472 T=   721. E= -.29239235E+03 F= -.29407062E+03 E0= -.29407062E+03  EK= 0.16783E+01 SP= 0.00E+00 SK= 0.00E+00 mag=     -0.000
473 T=   726. E= -.29239260E+03 F= -.29408146E+03 E0= -.29408146E+03  EK= 0.16889E+01 SP= 0.00E+00 SK= 0.00E+00 mag=      0.000
474 T=   730. E= -.29239273E+03 F= -.29409041E+03 E0= -.29409041E+03  EK= 0.16977E+01 SP= 0.00E+00 SK= 0.00E+00 mag=      0.000
475 T=   732. E= -.29239272E+03 F= -.29409516E+03 E0= -.29409516E+03  EK= 0.17024E+01 SP= 0.00E+00 SK= 0.00E+00 mag=      0.000
476 T=   732. E= -.29239259E+03 F= -.29409558E+03 E0= -.29409558E+03  EK= 0.17030E+01 SP= 0.00E+00 SK= 0.00E+00 mag=     -0.000
477 T=   731. E= -.29239245E+03 F= -.29409313E+03 E0= -.29409313E+03  EK= 0.17007E+01 SP= 0.00E+00 SK= 0.00E+00 mag=     -0.000
478 T=   730. E= -.29239232E+03 F= -.29408983E+03 E0= -.29408983E+03  EK= 0.16975E+01 SP= 0.00E+00 SK= 0.00E+00 mag=     -0.000
479 T=   729. E= -.29239225E+03 F= -.29408763E+03 E0= -.29408763E+03  EK= 0.16954E+01 SP= 0.00E+00 SK= 0.00E+00 mag=      0.000
480 T=   729. E= -.29239222E+03 F= -.29408772E+03 E0= -.29408772E+03  EK= 0.16955E+01 SP= 0.00E+00 SK= 0.00E+00 mag=      0.000
481 T=   730. E= -.29239226E+03 F= -.29409053E+03 E0= -.29409053E+03  EK= 0.16983E+01 SP= 0.00E+00 SK= 0.00E+00 mag=      0.000
482 T=   732. E= -.29239231E+03 F= -.29409577E+03 E0= -.29409577E+03  EK= 0.17035E+01 SP= 0.00E+00 SK= 0.00E+00 mag=     -0.000
483 T=   735. E= -.29239241E+03 F= -.29410252E+03 E0= -.29410252E+03  EK= 0.17101E+01 SP= 0.00E+00 SK= 0.00E+00 mag=     -0.000
484 T=   738. E= -.29239254E+03 F= -.29410917E+03 E0= -.29410917E+03  EK= 0.17166E+01 SP= 0.00E+00 SK= 0.00E+00 mag=     -0.000
485 T=   740. E= -.29239263E+03 F= -.29411377E+03 E0= -.29411377E+03  EK= 0.17211E+01 SP= 0.00E+00 SK= 0.00E+00 mag=      0.000
486 T=   740. E= -.29239263E+03 F= -.29411475E+03 E0= -.29411475E+03  EK= 0.17221E+01 SP= 0.00E+00 SK= 0.00E+00 mag=      0.000
487 T=   739. E= -.29239251E+03 F= -.29411185E+03 E0= -.29411185E+03  EK= 0.17193E+01 SP= 0.00E+00 SK= 0.00E+00 mag=      0.000
488 T=   737. E= -.29239231E+03 F= -.29410676E+03 E0= -.29410676E+03  EK= 0.17145E+01 SP= 0.00E+00 SK= 0.00E+00 mag=     -0.000
489 T=   735. E= -.29239212E+03 F= -.29410248E+03 E0= -.29410248E+03  EK= 0.17104E+01 SP= 0.00E+00 SK= 0.00E+00 mag=     -0.000
490 T=   735. E= -.29239209E+03 F= -.29410147E+03 E0= -.29410147E+03  EK= 0.17094E+01 SP= 0.00E+00 SK= 0.00E+00 mag=     -0.000
491 T=   736. E= -.29239224E+03 F= -.29410393E+03 E0= -.29410393E+03  EK= 0.17117E+01 SP= 0.00E+00 SK= 0.00E+00 mag=     -0.000
492 T=   737. E= -.29239247E+03 F= -.29410758E+03 E0= -.29410758E+03  EK= 0.17151E+01 SP= 0.00E+00 SK= 0.00E+00 mag=      0.000
493 T=   738. E= -.29239261E+03 F= -.29410920E+03 E0= -.29410920E+03  EK= 0.17166E+01 SP= 0.00E+00 SK= 0.00E+00 mag=      0.000
494 T=   737. E= -.29239260E+03 F= -.29410673E+03 E0= -.29410673E+03  EK= 0.17141E+01 SP= 0.00E+00 SK= 0.00E+00 mag=      0.000
495 T=   734. E= -.29239247E+03 F= -.29410018E+03 E0= -.29410018E+03  EK= 0.17077E+01 SP= 0.00E+00 SK= 0.00E+00 mag=     -0.000
496 T=   730. E= -.29239227E+03 F= -.29409139E+03 E0= -.29409139E+03  EK= 0.16991E+01 SP= 0.00E+00 SK= 0.00E+00 mag=     -0.000
497 T=   727. E= -.29239214E+03 F= -.29408305E+03 E0= -.29408305E+03  EK= 0.16909E+01 SP= 0.00E+00 SK= 0.00E+00 mag=     -0.000
498 T=   724. E= -.29239207E+03 F= -.29407746E+03 E0= -.29407746E+03  EK= 0.16854E+01 SP= 0.00E+00 SK= 0.00E+00 mag=      0.000
499 T=   724. E= -.29239207E+03 F= -.29407590E+03 E0= -.29407590E+03  EK= 0.16838E+01 SP= 0.00E+00 SK= 0.00E+00 mag=      0.000
500 T=   725. E= -.29239215E+03 F= -.29407839E+03 E0= -.29407839E+03  EK= 0.16862E+01 SP= 0.00E+00 SK= 0.00E+00 mag=      0.000
501 T=   727. E= -.29239226E+03 F= -.29408391E+03 E0= -.29408391E+03  EK= 0.16917E+01 SP= 0.00E+00 SK= 0.00E+00 mag=     -0.000
502 T=   730. E= -.29239237E+03 F= -.29409075E+03 E0= -.29409075E+03  EK= 0.16984E+01 SP= 0.00E+00 SK= 0.00E+00 mag=     -0.000
503 T=   733. E= -.29239248E+03 F= -.29409710E+03 E0= -.29409710E+03  EK= 0.17046E+01 SP= 0.00E+00 SK= 0.00E+00 mag=     -0.000
504 T=   734. E= -.29239253E+03 F= -.29410126E+03 E0= -.29410126E+03  EK= 0.17087E+01 SP= 0.00E+00 SK= 0.00E+00 mag=      0.000
505 T=   735. E= -.29239255E+03 F= -.29410219E+03 E0= -.29410219E+03  EK= 0.17096E+01 SP= 0.00E+00 SK= 0.00E+00 mag=      0.000
506 T=   734. E= -.29239244E+03 F= -.29409986E+03 E0= -.29409986E+03  EK= 0.17074E+01 SP= 0.00E+00 SK= 0.00E+00 mag=      0.000
507 T=   732. E= -.29239225E+03 F= -.29409597E+03 E0= -.29409597E+03  EK= 0.17037E+01 SP= 0.00E+00 SK= 0.00E+00 mag=     -0.000
508 T=   731. E= -.29239206E+03 F= -.29409345E+03 E0= -.29409345E+03  EK= 0.17014E+01 SP= 0.00E+00 SK= 0.00E+00 mag=     -0.000
509 T=   732. E= -.29239204E+03 F= -.29409506E+03 E0= -.29409506E+03  EK= 0.17030E+01 SP= 0.00E+00 SK= 0.00E+00 mag=     -0.000
510 T=   734. E= -.29239222E+03 F= -.29410116E+03 E0= -.29410116E+03  EK= 0.17089E+01 SP= 0.00E+00 SK= 0.00E+00 mag=      0.000
511 T=   738. E= -.29239249E+03 F= -.29410909E+03 E0= -.29410909E+03  EK= 0.17166E+01 SP= 0.00E+00 SK= 0.00E+00 mag=      0.000
512 T=   740. E= -.29239269E+03 F= -.29411450E+03 E0= -.29411450E+03  EK= 0.17218E+01 SP= 0.00E+00 SK= 0.00E+00 mag=      0.000
513 T=   740. E= -.29239273E+03 F= -.29411394E+03 E0= -.29411394E+03  EK= 0.17212E+01 SP= 0.00E+00 SK= 0.00E+00 mag=     -0.000
514 T=   737. E= -.29239262E+03 F= -.29410661E+03 E0= -.29410661E+03  EK= 0.17140E+01 SP= 0.00E+00 SK= 0.00E+00 mag=     -0.000
515 T=   731. E= -.29239241E+03 F= -.29409427E+03 E0= -.29409427E+03  EK= 0.17019E+01 SP= 0.00E+00 SK= 0.00E+00 mag=     -0.000
516 T=   725. E= -.29239224E+03 F= -.29408015E+03 E0= -.29408015E+03  EK= 0.16879E+01 SP= 0.00E+00 SK= 0.00E+00 mag=      0.000
517 T=   720. E= -.29239212E+03 F= -.29406721E+03 E0= -.29406721E+03  EK= 0.16751E+01 SP= 0.00E+00 SK= 0.00E+00 mag=      0.000
518 T=   716. E= -.29239211E+03 F= -.29405723E+03 E0= -.29405723E+03  EK= 0.16651E+01 SP= 0.00E+00 SK= 0.00E+00 mag=      0.000
519 T=   713. E= -.29239218E+03 F= -.29405031E+03 E0= -.29405031E+03  EK= 0.16581E+01 SP= 0.00E+00 SK= 0.00E+00 mag=     -0.000
520 T=   710. E= -.29239232E+03 F= -.29404510E+03 E0= -.29404510E+03  EK= 0.16528E+01 SP= 0.00E+00 SK= 0.00E+00 mag=     -0.000
521 T=   708. E= -.29239246E+03 F= -.29403938E+03 E0= -.29403938E+03  EK= 0.16469E+01 SP= 0.00E+00 SK= 0.00E+00 mag=     -0.000
522 T=   704. E= -.29239257E+03 F= -.29403074E+03 E0= -.29403074E+03  EK= 0.16382E+01 SP= 0.00E+00 SK= 0.00E+00 mag=      0.000
523 T=   698. E= -.29239259E+03 F= -.29401730E+03 E0= -.29401730E+03  EK= 0.16247E+01 SP= 0.00E+00 SK= 0.00E+00 mag=      0.000
524 T=   690. E= -.29239251E+03 F= -.29399835E+03 E0= -.29399835E+03  EK= 0.16058E+01 SP= 0.00E+00 SK= 0.00E+00 mag=      0.000
525 T=   680. E= -.29239231E+03 F= -.29397481E+03 E0= -.29397481E+03  EK= 0.15825E+01 SP= 0.00E+00 SK= 0.00E+00 mag=     -0.000
526 T=   669. E= -.29239204E+03 F= -.29394955E+03 E0= -.29394955E+03  EK= 0.15575E+01 SP= 0.00E+00 SK= 0.00E+00 mag=     -0.000
527 T=   660. E= -.29239183E+03 F= -.29392637E+03 E0= -.29392637E+03  EK= 0.15345E+01 SP= 0.00E+00 SK= 0.00E+00 mag=     -0.000
528 T=   652. E= -.29239182E+03 F= -.29390796E+03 E0= -.29390796E+03  EK= 0.15161E+01 SP= 0.00E+00 SK= 0.00E+00 mag=      0.000
529 T=   646. E= -.29239203E+03 F= -.29389403E+03 E0= -.29389403E+03  EK= 0.15020E+01 SP= 0.00E+00 SK= 0.00E+00 mag=      0.000
530 T=   640. E= -.29239228E+03 F= -.29388130E+03 E0= -.29388130E+03  EK= 0.14890E+01 SP= 0.00E+00 SK= 0.00E+00 mag=      0.000
531 T=   633. E= -.29239239E+03 F= -.29386579E+03 E0= -.29386579E+03  EK= 0.14734E+01 SP= 0.00E+00 SK= 0.00E+00 mag=      0.000
532 T=   625. E= -.29239228E+03 F= -.29384553E+03 E0= -.29384553E+03  EK= 0.14533E+01 SP= 0.00E+00 SK= 0.00E+00 mag=     -0.000
533 T=   614. E= -.29239203E+03 F= -.29382166E+03 E0= -.29382166E+03  EK= 0.14296E+01 SP= 0.00E+00 SK= 0.00E+00 mag=     -0.000
534 T=   604. E= -.29239176E+03 F= -.29379751E+03 E0= -.29379751E+03  EK= 0.14058E+01 SP= 0.00E+00 SK= 0.00E+00 mag=     -0.000
535 T=   595. E= -.29239155E+03 F= -.29377698E+03 E0= -.29377698E+03  EK= 0.13854E+01 SP= 0.00E+00 SK= 0.00E+00 mag=      0.000
536 T=   589. E= -.29239149E+03 F= -.29376300E+03 E0= -.29376300E+03  EK= 0.13715E+01 SP= 0.00E+00 SK= 0.00E+00 mag=      0.000
537 T=   587. E= -.29239156E+03 F= -.29375650E+03 E0= -.29375650E+03  EK= 0.13649E+01 SP= 0.00E+00 SK= 0.00E+00 mag=      0.000
538 T=   587. E= -.29239173E+03 F= -.29375638E+03 E0= -.29375638E+03  EK= 0.13647E+01 SP= 0.00E+00 SK= 0.00E+00 mag=     -0.000
539 T=   588. E= -.29239194E+03 F= -.29375990E+03 E0= -.29375990E+03  EK= 0.13680E+01 SP= 0.00E+00 SK= 0.00E+00 mag=     -0.000
540 T=   589. E= -.29239212E+03 F= -.29376358E+03 E0= -.29376358E+03  EK= 0.13715E+01 SP= 0.00E+00 SK= 0.00E+00 mag=     -0.000
541 T=   590. E= -.29239220E+03 F= -.29376446E+03 E0= -.29376446E+03  EK= 0.13723E+01 SP= 0.00E+00 SK= 0.00E+00 mag=      0.000
542 T=   588. E= -.29239213E+03 F= -.29376119E+03 E0= -.29376119E+03  EK= 0.13691E+01 SP= 0.00E+00 SK= 0.00E+00 mag=      0.000
543 T=   586. E= -.29239188E+03 F= -.29375485E+03 E0= -.29375485E+03  EK= 0.13630E+01 SP= 0.00E+00 SK= 0.00E+00 mag=      0.000
544 T=   583. E= -.29239158E+03 F= -.29374897E+03 E0= -.29374897E+03  EK= 0.13574E+01 SP= 0.00E+00 SK= 0.00E+00 mag=     -0.000
545 T=   583. E= -.29239137E+03 F= -.29374808E+03 E0= -.29374808E+03  EK= 0.13567E+01 SP= 0.00E+00 SK= 0.00E+00 mag=     -0.000
546 T=   586. E= -.29239142E+03 F= -.29375521E+03 E0= -.29375521E+03  EK= 0.13638E+01 SP= 0.00E+00 SK= 0.00E+00 mag=     -0.000
547 T=   592. E= -.29239174E+03 F= -.29376945E+03 E0= -.29376945E+03  EK= 0.13777E+01 SP= 0.00E+00 SK= 0.00E+00 mag=     -0.000
548 T=   599. E= -.29239216E+03 F= -.29378586E+03 E0= -.29378586E+03  EK= 0.13937E+01 SP= 0.00E+00 SK= 0.00E+00 mag=      0.000
549 T=   604. E= -.29239243E+03 F= -.29379823E+03 E0= -.29379823E+03  EK= 0.14058E+01 SP= 0.00E+00 SK= 0.00E+00 mag=      0.000
550 T=   606. E= -.29239245E+03 F= -.29380243E+03 E0= -.29380243E+03  EK= 0.14100E+01 SP= 0.00E+00 SK= 0.00E+00 mag=      0.000
551 T=   604. E= -.29239224E+03 F= -.29379824E+03 E0= -.29379824E+03  EK= 0.14060E+01 SP= 0.00E+00 SK= 0.00E+00 mag=     -0.000
552 T=   600. E= -.29239192E+03 F= -.29378894E+03 E0= -.29378894E+03  EK= 0.13970E+01 SP= 0.00E+00 SK= 0.00E+00 mag=     -0.000
553 T=   596. E= -.29239162E+03 F= -.29377943E+03 E0= -.29377943E+03  EK= 0.13878E+01 SP= 0.00E+00 SK= 0.00E+00 mag=      0.000
554 T=   594. E= -.29239147E+03 F= -.29377428E+03 E0= -.29377428E+03  EK= 0.13828E+01 SP= 0.00E+00 SK= 0.00E+00 mag=      0.000
555 T=   595. E= -.29239147E+03 F= -.29377609E+03 E0= -.29377609E+03  EK= 0.13846E+01 SP= 0.00E+00 SK= 0.00E+00 mag=      0.000
556 T=   599. E= -.29239161E+03 F= -.29378488E+03 E0= -.29378488E+03  EK= 0.13933E+01 SP= 0.00E+00 SK= 0.00E+00 mag=     -0.000
557 T=   604. E= -.29239187E+03 F= -.29379824E+03 E0= -.29379824E+03  EK= 0.14064E+01 SP= 0.00E+00 SK= 0.00E+00 mag=     -0.000
558 T=   610. E= -.29239218E+03 F= -.29381185E+03 E0= -.29381185E+03  EK= 0.14197E+01 SP= 0.00E+00 SK= 0.00E+00 mag=     -0.000
559 T=   614. E= -.29239240E+03 F= -.29382096E+03 E0= -.29382096E+03  EK= 0.14286E+01 SP= 0.00E+00 SK= 0.00E+00 mag=      0.000
560 T=   615. E= -.29239241E+03 F= -.29382218E+03 E0= -.29382218E+03  EK= 0.14298E+01 SP= 0.00E+00 SK= 0.00E+00 mag=      0.000
561 T=   612. E= -.29239215E+03 F= -.29381533E+03 E0= -.29381533E+03  EK= 0.14232E+01 SP= 0.00E+00 SK= 0.00E+00 mag=      0.000
562 T=   607. E= -.29239169E+03 F= -.29380435E+03 E0= -.29380435E+03  EK= 0.14127E+01 SP= 0.00E+00 SK= 0.00E+00 mag=     -0.000
563 T=   604. E= -.29239125E+03 F= -.29379635E+03 E0= -.29379635E+03  EK= 0.14051E+01 SP= 0.00E+00 SK= 0.00E+00 mag=     -0.000
564 T=   605. E= -.29239109E+03 F= -.29379802E+03 E0= -.29379802E+03  EK= 0.14069E+01 SP= 0.00E+00 SK= 0.00E+00 mag=     -0.000
565 T=   610. E= -.29239133E+03 F= -.29381167E+03 E0= -.29381167E+03  EK= 0.14203E+01 SP= 0.00E+00 SK= 0.00E+00 mag=      0.000
566 T=   620. E= -.29239180E+03 F= -.29383370E+03 E0= -.29383370E+03  EK= 0.14419E+01 SP= 0.00E+00 SK= 0.00E+00 mag=      0.000
567 T=   630. E= -.29239221E+03 F= -.29385694E+03 E0= -.29385694E+03  EK= 0.14647E+01 SP= 0.00E+00 SK= 0.00E+00 mag=     -0.000
568 T=   637. E= -.29239235E+03 F= -.29387500E+03 E0= -.29387500E+03  EK= 0.14827E+01 SP= 0.00E+00 SK= 0.00E+00 mag=     -0.000
569 T=   642. E= -.29239220E+03 F= -.29388533E+03 E0= -.29388533E+03  EK= 0.14931E+01 SP= 0.00E+00 SK= 0.00E+00 mag=     -0.000
570 T=   644. E= -.29239187E+03 F= -.29388977E+03 E0= -.29388977E+03  EK= 0.14979E+01 SP= 0.00E+00 SK= 0.00E+00 mag=     -0.000
571 T=   645. E= -.29239154E+03 F= -.29389286E+03 E0= -.29389286E+03  EK= 0.15013E+01 SP= 0.00E+00 SK= 0.00E+00 mag=      0.000
572 T=   648. E= -.29239132E+03 F= -.29389961E+03 E0= -.29389961E+03  EK= 0.15083E+01 SP= 0.00E+00 SK= 0.00E+00 mag=      0.000
573 T=   654. E= -.29239123E+03 F= -.29391364E+03 E0= -.29391364E+03  EK= 0.15224E+01 SP= 0.00E+00 SK= 0.00E+00 mag=     -0.000
574 T=   664. E= -.29239135E+03 F= -.29393624E+03 E0= -.29393624E+03  EK= 0.15449E+01 SP= 0.00E+00 SK= 0.00E+00 mag=     -0.000
575 T=   677. E= -.29239163E+03 F= -.29396567E+03 E0= -.29396567E+03  EK= 0.15740E+01 SP= 0.00E+00 SK= 0.00E+00 mag=     -0.000
576 T=   690. E= -.29239201E+03 F= -.29399770E+03 E0= -.29399770E+03  EK= 0.16057E+01 SP= 0.00E+00 SK= 0.00E+00 mag=      0.000
577 T=   702. E= -.29239236E+03 F= -.29402671E+03 E0= -.29402671E+03  EK= 0.16343E+01 SP= 0.00E+00 SK= 0.00E+00 mag=      0.000
578 T=   711. E= -.29239255E+03 F= -.29404756E+03 E0= -.29404756E+03  EK= 0.16550E+01 SP= 0.00E+00 SK= 0.00E+00 mag=      0.000
579 T=   716. E= -.29239245E+03 F= -.29405777E+03 E0= -.29405777E+03  EK= 0.16653E+01 SP= 0.00E+00 SK= 0.00E+00 mag=     -0.000
580 T=   716. E= -.29239207E+03 F= -.29405910E+03 E0= -.29405910E+03  EK= 0.16670E+01 SP= 0.00E+00 SK= 0.00E+00 mag=     -0.000
581 T=   716. E= -.29239160E+03 F= -.29405733E+03 E0= -.29405733E+03  EK= 0.16657E+01 SP= 0.00E+00 SK= 0.00E+00 mag=     -0.000
582 T=   717. E= -.29239136E+03 F= -.29405941E+03 E0= -.29405941E+03  EK= 0.16681E+01 SP= 0.00E+00 SK= 0.00E+00 mag=      0.000
583 T=   721. E= -.29239146E+03 F= -.29406907E+03 E0= -.29406907E+03  EK= 0.16776E+01 SP= 0.00E+00 SK= 0.00E+00 mag=      0.000
584 T=   728. E= -.29239186E+03 F= -.29408464E+03 E0= -.29408464E+03  EK= 0.16928E+01 SP= 0.00E+00 SK= 0.00E+00 mag=      0.000
585 T=   734. E= -.29239229E+03 F= -.29410012E+03 E0= -.29410012E+03  EK= 0.17078E+01 SP= 0.00E+00 SK= 0.00E+00 mag=     -0.000
586 T=   738. E= -.29239252E+03 F= -.29410914E+03 E0= -.29410914E+03  EK= 0.17166E+01 SP= 0.00E+00 SK= 0.00E+00 mag=     -0.000
587 T=   737. E= -.29239248E+03 F= -.29410819E+03 E0= -.29410819E+03  EK= 0.17157E+01 SP= 0.00E+00 SK= 0.00E+00 mag=     -0.000
588 T=   733. E= -.29239224E+03 F= -.29409772E+03 E0= -.29409772E+03  EK= 0.17055E+01 SP= 0.00E+00 SK= 0.00E+00 mag=      0.000
589 T=   726. E= -.29239192E+03 F= -.29408123E+03 E0= -.29408123E+03  EK= 0.16893E+01 SP= 0.00E+00 SK= 0.00E+00 mag=      0.000
590 T=   719. E= -.29239164E+03 F= -.29406359E+03 E0= -.29406359E+03  EK= 0.16720E+01 SP= 0.00E+00 SK= 0.00E+00 mag=     -0.000
591 T=   712. E= -.29239146E+03 F= -.29404921E+03 E0= -.29404921E+03  EK= 0.16578E+01 SP= 0.00E+00 SK= 0.00E+00 mag=     -0.000
592 T=   709. E= -.29239146E+03 F= -.29404080E+03 E0= -.29404080E+03  EK= 0.16493E+01 SP= 0.00E+00 SK= 0.00E+00 mag=     -0.000
593 T=   708. E= -.29239160E+03 F= -.29403861E+03 E0= -.29403861E+03  EK= 0.16470E+01 SP= 0.00E+00 SK= 0.00E+00 mag=      0.000
594 T=   709. E= -.29239185E+03 F= -.29404040E+03 E0= -.29404040E+03  EK= 0.16485E+01 SP= 0.00E+00 SK= 0.00E+00 mag=      0.000
595 T=   709. E= -.29239213E+03 F= -.29404215E+03 E0= -.29404215E+03  EK= 0.16500E+01 SP= 0.00E+00 SK= 0.00E+00 mag=      0.000
596 T=   708. E= -.29239229E+03 F= -.29403957E+03 E0= -.29403957E+03  EK= 0.16473E+01 SP= 0.00E+00 SK= 0.00E+00 mag=     -0.000
597 T=   704. E= -.29239225E+03 F= -.29403010E+03 E0= -.29403010E+03  EK= 0.16379E+01 SP= 0.00E+00 SK= 0.00E+00 mag=     -0.000
598 T=   697. E= -.29239198E+03 F= -.29401445E+03 E0= -.29401445E+03  EK= 0.16225E+01 SP= 0.00E+00 SK= 0.00E+00 mag=     -0.000
599 T=   690. E= -.29239162E+03 F= -.29399683E+03 E0= -.29399683E+03  EK= 0.16052E+01 SP= 0.00E+00 SK= 0.00E+00 mag=      0.000
600 T=   684. E= -.29239140E+03 F= -.29398283E+03 E0= -.29398283E+03  EK= 0.15914E+01 SP= 0.00E+00 SK= 0.00E+00 mag=      0.000
601 T=   681. E= -.29239145E+03 F= -.29397593E+03 E0= -.29397593E+03  EK= 0.15845E+01 SP= 0.00E+00 SK= 0.00E+00 mag=      0.000
602 T=   681. E= -.29239172E+03 F= -.29397538E+03 E0= -.29397538E+03  EK= 0.15837E+01 SP= 0.00E+00 SK= 0.00E+00 mag=     -0.000
603 T=   681. E= -.29239198E+03 F= -.29397721E+03 E0= -.29397721E+03  EK= 0.15852E+01 SP= 0.00E+00 SK= 0.00E+00 mag=     -0.000
604 T=   681. E= -.29239211E+03 F= -.29397712E+03 E0= -.29397712E+03  EK= 0.15850E+01 SP= 0.00E+00 SK= 0.00E+00 mag=     -0.000
605 T=   679. E= -.29239206E+03 F= -.29397282E+03 E0= -.29397282E+03  EK= 0.15808E+01 SP= 0.00E+00 SK= 0.00E+00 mag=      0.000
606 T=   676. E= -.29239192E+03 F= -.29396466E+03 E0= -.29396466E+03  EK= 0.15727E+01 SP= 0.00E+00 SK= 0.00E+00 mag=      0.000
607 T=   672. E= -.29239175E+03 F= -.29395463E+03 E0= -.29395463E+03  EK= 0.15629E+01 SP= 0.00E+00 SK= 0.00E+00 mag=      0.000
608 T=   668. E= -.29239159E+03 F= -.29394529E+03 E0= -.29394529E+03  EK= 0.15537E+01 SP= 0.00E+00 SK= 0.00E+00 mag=     -0.000
609 T=   665. E= -.29239149E+03 F= -.29393889E+03 E0= -.29393889E+03  EK= 0.15474E+01 SP= 0.00E+00 SK= 0.00E+00 mag=     -0.000
610 T=   664. E= -.29239149E+03 F= -.29393675E+03 E0= -.29393675E+03  EK= 0.15453E+01 SP= 0.00E+00 SK= 0.00E+00 mag=     -0.000
611 T=   665. E= -.29239160E+03 F= -.29393877E+03 E0= -.29393877E+03  EK= 0.15472E+01 SP= 0.00E+00 SK= 0.00E+00 mag=      0.000
612 T=   667. E= -.29239178E+03 F= -.29394330E+03 E0= -.29394330E+03  EK= 0.15515E+01 SP= 0.00E+00 SK= 0.00E+00 mag=      0.000
613 T=   669. E= -.29239197E+03 F= -.29394754E+03 E0= -.29394754E+03  EK= 0.15556E+01 SP= 0.00E+00 SK= 0.00E+00 mag=     -0.000
614 T=   669. E= -.29239210E+03 F= -.29394843E+03 E0= -.29394843E+03  EK= 0.15563E+01 SP= 0.00E+00 SK= 0.00E+00 mag=     -0.000
615 T=   667. E= -.29239208E+03 F= -.29394395E+03 E0= -.29394395E+03  EK= 0.15519E+01 SP= 0.00E+00 SK= 0.00E+00 mag=     -0.000
616 T=   663. E= -.29239187E+03 F= -.29393447E+03 E0= -.29393447E+03  EK= 0.15426E+01 SP= 0.00E+00 SK= 0.00E+00 mag=     -0.000
617 T=   658. E= -.29239160E+03 F= -.29392302E+03 E0= -.29392302E+03  EK= 0.15314E+01 SP= 0.00E+00 SK= 0.00E+00 mag=      0.000
618 T=   654. E= -.29239145E+03 F= -.29391366E+03 E0= -.29391366E+03  EK= 0.15222E+01 SP= 0.00E+00 SK= 0.00E+00 mag=      0.000
619 T=   652. E= -.29239155E+03 F= -.29390868E+03 E0= -.29390868E+03  EK= 0.15171E+01 SP= 0.00E+00 SK= 0.00E+00 mag=      0.000
620 T=   651. E= -.29239185E+03 F= -.29390669E+03 E0= -.29390669E+03  EK= 0.15148E+01 SP= 0.00E+00 SK= 0.00E+00 mag=     -0.000
621 T=   650. E= -.29239213E+03 F= -.29390340E+03 E0= -.29390340E+03  EK= 0.15113E+01 SP= 0.00E+00 SK= 0.00E+00 mag=     -0.000
1 T=   646. E= -.29239223E+03 F= -.29389460E+03 E0= -.29389460E+03  EK= 0.15024E+01 SP= 0.00E+00 SK= 0.00E+00 mag=      0.000
2 T=   639. E= -.29239212E+03 F= -.29387885E+03 E0= -.29387885E+03  EK= 0.14867E+01 SP= 0.00E+00 SK= 0.00E+00 mag=      0.000
3 T=   630. E= -.29239188E+03 F= -.29385795E+03 E0= -.29385795E+03  EK= 0.14661E+01 SP= 0.00E+00 SK= 0.00E+00 mag=     -0.000
4 T=   621. E= -.29239162E+03 F= -.29383568E+03 E0= -.29383568E+03  EK= 0.14441E+01 SP= 0.00E+00 SK= 0.00E+00 mag=     -0.000
[...]
432 T=   738. E= -.29237555E+03 F= -.29409262E+03 E0= -.29409262E+03  EK= 0.17171E+01 SP= 0.00E+00 SK= 0.00E+00 mag=     -0.000
433 T=   736. E= -.29237564E+03 F= -.29408843E+03 E0= -.29408843E+03  EK= 0.17128E+01 SP= 0.00E+00 SK= 0.00E+00 mag=     -0.000
434 T=   733. E= -.29237553E+03 F= -.29407995E+03 E0= -.29407995E+03  EK= 0.17044E+01 SP= 0.00E+00 SK= 0.00E+00 mag=      0.000
435 T=   728. E= -.29237528E+03 F= -.29406861E+03 E0= -.29406861E+03  EK= 0.16933E+01 SP= 0.00E+00 SK= 0.00E+00 mag=      0.000
436 T=   723. E= -.29237508E+03 F= -.29405763E+03 E0= -.29405763E+03  EK= 0.16826E+01 SP= 0.00E+00 SK= 0.00E+00 mag=     -0.000
437 T=   720. E= -.29237503E+03 F= -.29404961E+03 E0= -.29404961E+03  EK= 0.16746E+01 SP= 0.00E+00 SK= 0.00E+00 mag=     -0.000
438 T=   718. E= -.29237515E+03 F= -.29404493E+03 E0= -.29404493E+03  EK= 0.16698E+01 SP= 0.00E+00 SK= 0.00E+00 mag=     -0.000
439 T=   716. E= -.29237527E+03 F= -.29404192E+03 E0= -.29404192E+03  EK= 0.16667E+01 SP= 0.00E+00 SK= 0.00E+00 mag=     -0.000
440 T=   715. E= -.29237535E+03 F= -.29403847E+03 E0= -.29403847E+03  EK= 0.16631E+01 SP= 0.00E+00 SK= 0.00E+00 mag=     -0.000
441 T=   713. E= -.29237533E+03 F= -.29403325E+03 E0= -.29403325E+03  EK= 0.16579E+01 SP= 0.00E+00 SK= 0.00E+00 mag=     -0.000
442 T=   710. E= -.29237528E+03 F= -.29402617E+03 E0= -.29402617E+03  EK= 0.16509E+01 SP= 0.00E+00 SK= 0.00E+00 mag=     -0.000
443 T=   706. E= -.29237523E+03 F= -.29401784E+03 E0= -.29401784E+03  EK= 0.16426E+01 SP= 0.00E+00 SK= 0.00E+00 mag=     -0.000
444 T=   702. E= -.29237521E+03 F= -.29400883E+03 E0= -.29400883E+03  EK= 0.16336E+01 SP= 0.00E+00 SK= 0.00E+00 mag=      0.000
445 T=   698. E= -.29237521E+03 F= -.29399944E+03 E0= -.29399944E+03  EK= 0.16242E+01 SP= 0.00E+00 SK= 0.00E+00 mag=      0.000
446 T=   694. E= -.29237518E+03 F= -.29398976E+03 E0= -.29398976E+03  EK= 0.16146E+01 SP= 0.00E+00 SK= 0.00E+00 mag=      0.000
447 T=   690. E= -.29237512E+03 F= -.29398022E+03 E0= -.29398022E+03  EK= 0.16051E+01 SP= 0.00E+00 SK= 0.00E+00 mag=      0.000
448 T=   686. E= -.29237501E+03 F= -.29397182E+03 E0= -.29397182E+03  EK= 0.15968E+01 SP= 0.00E+00 SK= 0.00E+00 mag=      0.000
449 T=   684. E= -.29237497E+03 F= -.29396595E+03 E0= -.29396595E+03  EK= 0.15910E+01 SP= 0.00E+00 SK= 0.00E+00 mag=     -0.000
450 T=   683. E= -.29237504E+03 F= -.29396317E+03 E0= -.29396317E+03  EK= 0.15881E+01 SP= 0.00E+00 SK= 0.00E+00 mag=     -0.000
451 T=   682. E= -.29237517E+03 F= -.29396252E+03 E0= -.29396252E+03  EK= 0.15873E+01 SP= 0.00E+00 SK= 0.00E+00 mag=      0.000
452 T=   682. E= -.29237526E+03 F= -.29396199E+03 E0= -.29396199E+03  EK= 0.15867E+01 SP= 0.00E+00 SK= 0.00E+00 mag=      0.000
453 T=   681. E= -.29237521E+03 F= -.29396014E+03 E0= -.29396014E+03  EK= 0.15849E+01 SP= 0.00E+00 SK= 0.00E+00 mag=      0.000
454 T=   680. E= -.29237499E+03 F= -.29395775E+03 E0= -.29395775E+03  EK= 0.15828E+01 SP= 0.00E+00 SK= 0.00E+00 mag=      0.000
455 T=   680. E= -.29237475E+03 F= -.29395801E+03 E0= -.29395801E+03  EK= 0.15833E+01 SP= 0.00E+00 SK= 0.00E+00 mag=     -0.000
456 T=   683. E= -.29237464E+03 F= -.29396433E+03 E0= -.29396433E+03  EK= 0.15897E+01 SP= 0.00E+00 SK= 0.00E+00 mag=     -0.000
457 T=   689. E= -.29237469E+03 F= -.29397807E+03 E0= -.29397807E+03  EK= 0.16034E+01 SP= 0.00E+00 SK= 0.00E+00 mag=     -0.000
458 T=   698. E= -.29237485E+03 F= -.29399794E+03 E0= -.29399794E+03  EK= 0.16231E+01 SP= 0.00E+00 SK= 0.00E+00 mag=      0.000
459 T=   708. E= -.29237496E+03 F= -.29402120E+03 E0= -.29402120E+03  EK= 0.16462E+01 SP= 0.00E+00 SK= 0.00E+00 mag=      0.000
460 T=   718. E= -.29237497E+03 F= -.29404577E+03 E0= -.29404577E+03  EK= 0.16708E+01 SP= 0.00E+00 SK= 0.00E+00 mag=      0.000
461 T=   729. E= -.29237489E+03 F= -.29407116E+03 E0= -.29407116E+03  EK= 0.16963E+01 SP= 0.00E+00 SK= 0.00E+00 mag=     -0.000
462 T=   741. E= -.29237480E+03 F= -.29409824E+03 E0= -.29409824E+03  EK= 0.17234E+01 SP= 0.00E+00 SK= 0.00E+00 mag=     -0.000
463 T=   754. E= -.29237476E+03 F= -.29412813E+03 E0= -.29412813E+03  EK= 0.17534E+01 SP= 0.00E+00 SK= 0.00E+00 mag=      0.000
464 T=   768. E= -.29237481E+03 F= -.29416140E+03 E0= -.29416140E+03  EK= 0.17866E+01 SP= 0.00E+00 SK= 0.00E+00 mag=      0.000
465 T=   783. E= -.29237490E+03 F= -.29419760E+03 E0= -.29419760E+03  EK= 0.18227E+01 SP= 0.00E+00 SK= 0.00E+00 mag=      0.000
466 T=   800. E= -.29237500E+03 F= -.29423537E+03 E0= -.29423537E+03  EK= 0.18604E+01 SP= 0.00E+00 SK= 0.00E+00 mag=      0.000
467 T=   816. E= -.29237512E+03 F= -.29427301E+03 E0= -.29427301E+03  EK= 0.18979E+01 SP= 0.00E+00 SK= 0.00E+00 mag=     -0.000
468 T=   831. E= -.29237527E+03 F= -.29430875E+03 E0= -.29430875E+03  EK= 0.19335E+01 SP= 0.00E+00 SK= 0.00E+00 mag=     -0.000
469 T=   845. E= -.29237536E+03 F= -.29434070E+03 E0= -.29434070E+03  EK= 0.19653E+01 SP= 0.00E+00 SK= 0.00E+00 mag=     -0.000
470 T=   856. E= -.29237547E+03 F= -.29436717E+03 E0= -.29436717E+03  EK= 0.19917E+01 SP= 0.00E+00 SK= 0.00E+00 mag=      0.000
471 T=   864. E= -.29237551E+03 F= -.29438666E+03 E0= -.29438666E+03  EK= 0.20111E+01 SP= 0.00E+00 SK= 0.00E+00 mag=      0.000
472 T=   870. E= -.29237544E+03 F= -.29439868E+03 E0= -.29439868E+03  EK= 0.20232E+01 SP= 0.00E+00 SK= 0.00E+00 mag=      0.000
473 T=   872. E= -.29237528E+03 F= -.29440444E+03 E0= -.29440444E+03  EK= 0.20292E+01 SP= 0.00E+00 SK= 0.00E+00 mag=      0.000
474 T=   873. E= -.29237516E+03 F= -.29440607E+03 E0= -.29440607E+03  EK= 0.20309E+01 SP= 0.00E+00 SK= 0.00E+00 mag=     -0.000
475 T=   872. E= -.29237520E+03 F= -.29440475E+03 E0= -.29440475E+03  EK= 0.20295E+01 SP= 0.00E+00 SK= 0.00E+00 mag=     -0.000
476 T=   870. E= -.29237538E+03 F= -.29439929E+03 E0= -.29439929E+03  EK= 0.20239E+01 SP= 0.00E+00 SK= 0.00E+00 mag=     -0.000
477 T=   864. E= -.29237553E+03 F= -.29438667E+03 E0= -.29438667E+03  EK= 0.20111E+01 SP= 0.00E+00 SK= 0.00E+00 mag=      0.000
478 T=   855. E= -.29237552E+03 F= -.29436433E+03 E0= -.29436433E+03  EK= 0.19888E+01 SP= 0.00E+00 SK= 0.00E+00 mag=      0.000
479 T=   841. E= -.29237531E+03 F= -.29433212E+03 E0= -.29433212E+03  EK= 0.19568E+01 SP= 0.00E+00 SK= 0.00E+00 mag=      0.000
480 T=   824. E= -.29237499E+03 F= -.29429295E+03 E0= -.29429295E+03  EK= 0.19180E+01 SP= 0.00E+00 SK= 0.00E+00 mag=     -0.000
481 T=   807. E= -.29237465E+03 F= -.29425148E+03 E0= -.29425148E+03  EK= 0.18768E+01 SP= 0.00E+00 SK= 0.00E+00 mag=     -0.000
482 T=   790. E= -.29237441E+03 F= -.29421253E+03 E0= -.29421253E+03  EK= 0.18381E+01 SP= 0.00E+00 SK= 0.00E+00 mag=     -0.000
483 T=   776. E= -.29237434E+03 F= -.29417968E+03 E0= -.29417968E+03  EK= 0.18053E+01 SP= 0.00E+00 SK= 0.00E+00 mag=      0.000
484 T=   765. E= -.29237439E+03 F= -.29415425E+03 E0= -.29415425E+03  EK= 0.17799E+01 SP= 0.00E+00 SK= 0.00E+00 mag=      0.000
485 T=   757. E= -.29237458E+03 F= -.29413523E+03 E0= -.29413523E+03  EK= 0.17606E+01 SP= 0.00E+00 SK= 0.00E+00 mag=      0.000
486 T=   750. E= -.29237482E+03 F= -.29411947E+03 E0= -.29411947E+03  EK= 0.17446E+01 SP= 0.00E+00 SK= 0.00E+00 mag=     -0.000
487 T=   743. E= -.29237503E+03 F= -.29410295E+03 E0= -.29410295E+03  EK= 0.17279E+01 SP= 0.00E+00 SK= 0.00E+00 mag=     -0.000
488 T=   734. E= -.29237505E+03 F= -.29408235E+03 E0= -.29408235E+03  EK= 0.17073E+01 SP= 0.00E+00 SK= 0.00E+00 mag=     -0.000
489 T=   723. E= -.29237481E+03 F= -.29405720E+03 E0= -.29405720E+03  EK= 0.16824E+01 SP= 0.00E+00 SK= 0.00E+00 mag=     -0.000
490 T=   712. E= -.29237433E+03 F= -.29403107E+03 E0= -.29403107E+03  EK= 0.16567E+01 SP= 0.00E+00 SK= 0.00E+00 mag=     -0.000
491 T=   704. E= -.29237380E+03 F= -.29401106E+03 E0= -.29401106E+03  EK= 0.16373E+01 SP= 0.00E+00 SK= 0.00E+00 mag=     -0.000
492 T=   701. E= -.29237352E+03 F= -.29400489E+03 E0= -.29400489E+03  EK= 0.16314E+01 SP= 0.00E+00 SK= 0.00E+00 mag=     -0.000
493 T=   706. E= -.29237364E+03 F= -.29401673E+03 E0= -.29401673E+03  EK= 0.16431E+01 SP= 0.00E+00 SK= 0.00E+00 mag=      0.000
494 T=   718. E= -.29237413E+03 F= -.29404453E+03 E0= -.29404453E+03  EK= 0.16704E+01 SP= 0.00E+00 SK= 0.00E+00 mag=      0.000
495 T=   733. E= -.29237465E+03 F= -.29408091E+03 E0= -.29408091E+03  EK= 0.17063E+01 SP= 0.00E+00 SK= 0.00E+00 mag=      0.000
496 T=   749. E= -.29237501E+03 F= -.29411726E+03 E0= -.29411726E+03  EK= 0.17423E+01 SP= 0.00E+00 SK= 0.00E+00 mag=     -0.000
497 T=   762. E= -.29237506E+03 F= -.29414760E+03 E0= -.29414760E+03  EK= 0.17725E+01 SP= 0.00E+00 SK= 0.00E+00 mag=     -0.000
498 T=   772. E= -.29237485E+03 F= -.29417066E+03 E0= -.29417066E+03  EK= 0.17958E+01 SP= 0.00E+00 SK= 0.00E+00 mag=     -0.000
499 T=   780. E= -.29237453E+03 F= -.29418913E+03 E0= -.29418913E+03  EK= 0.18146E+01 SP= 0.00E+00 SK= 0.00E+00 mag=      0.000
500 T=   788. E= -.29237422E+03 F= -.29420749E+03 E0= -.29420749E+03  EK= 0.18333E+01 SP= 0.00E+00 SK= 0.00E+00 mag=      0.000
501 T=   798. E= -.29237404E+03 F= -.29423011E+03 E0= -.29423011E+03  EK= 0.18561E+01 SP= 0.00E+00 SK= 0.00E+00 mag=      0.000
502 T=   810. E= -.29237400E+03 F= -.29425971E+03 E0= -.29425971E+03  EK= 0.18857E+01 SP= 0.00E+00 SK= 0.00E+00 mag=      0.000
503 T=   826. E= -.29237411E+03 F= -.29429682E+03 E0= -.29429682E+03  EK= 0.19227E+01 SP= 0.00E+00 SK= 0.00E+00 mag=     -0.000
504 T=   845. E= -.29237435E+03 F= -.29433940E+03 E0= -.29433940E+03  EK= 0.19650E+01 SP= 0.00E+00 SK= 0.00E+00 mag=     -0.000
505 T=   863. E= -.29237465E+03 F= -.29438337E+03 E0= -.29438337E+03  EK= 0.20087E+01 SP= 0.00E+00 SK= 0.00E+00 mag=     -0.000
506 T=   881. E= -.29237494E+03 F= -.29442380E+03 E0= -.29442380E+03  EK= 0.20489E+01 SP= 0.00E+00 SK= 0.00E+00 mag=      0.000
507 T=   894. E= -.29237510E+03 F= -.29445626E+03 E0= -.29445626E+03  EK= 0.20812E+01 SP= 0.00E+00 SK= 0.00E+00 mag=      0.000
508 T=   904. E= -.29237500E+03 F= -.29447854E+03 E0= -.29447854E+03  EK= 0.21035E+01 SP= 0.00E+00 SK= 0.00E+00 mag=     -0.000
509 T=   910. E= -.29237470E+03 F= -.29449187E+03 E0= -.29449187E+03  EK= 0.21172E+01 SP= 0.00E+00 SK= 0.00E+00 mag=     -0.000
510 T=   914. E= -.29237438E+03 F= -.29450023E+03 E0= -.29450023E+03  EK= 0.21258E+01 SP= 0.00E+00 SK= 0.00E+00 mag=     -0.000
511 T=   917. E= -.29237422E+03 F= -.29450794E+03 E0= -.29450794E+03  EK= 0.21337E+01 SP= 0.00E+00 SK= 0.00E+00 mag=      0.000
512 T=   921. E= -.29237432E+03 F= -.29451700E+03 E0= -.29451700E+03  EK= 0.21427E+01 SP= 0.00E+00 SK= 0.00E+00 mag=      0.000
513 T=   925. E= -.29237451E+03 F= -.29452586E+03 E0= -.29452586E+03  EK= 0.21514E+01 SP= 0.00E+00 SK= 0.00E+00 mag=      0.000
514 T=   927. E= -.29237467E+03 F= -.29453105E+03 E0= -.29453105E+03  EK= 0.21564E+01 SP= 0.00E+00 SK= 0.00E+00 mag=     -0.000
515 T=   926. E= -.29237469E+03 F= -.29452969E+03 E0= -.29452969E+03  EK= 0.21550E+01 SP= 0.00E+00 SK= 0.00E+00 mag=     -0.000
516 T=   923. E= -.29237461E+03 F= -.29452104E+03 E0= -.29452104E+03  EK= 0.21464E+01 SP= 0.00E+00 SK= 0.00E+00 mag=     -0.000
517 T=   916. E= -.29237447E+03 F= -.29450621E+03 E0= -.29450621E+03  EK= 0.21317E+01 SP= 0.00E+00 SK= 0.00E+00 mag=      0.000
518 T=   908. E= -.29237434E+03 F= -.29448712E+03 E0= -.29448712E+03  EK= 0.21128E+01 SP= 0.00E+00 SK= 0.00E+00 mag=      0.000
519 T=   899. E= -.29237427E+03 F= -.29446543E+03 E0= -.29446543E+03  EK= 0.20912E+01 SP= 0.00E+00 SK= 0.00E+00 mag=      0.000
520 T=   889. E= -.29237422E+03 F= -.29444230E+03 E0= -.29444230E+03  EK= 0.20681E+01 SP= 0.00E+00 SK= 0.00E+00 mag=     -0.000
521 T=   879. E= -.29237422E+03 F= -.29441825E+03 E0= -.29441825E+03  EK= 0.20440E+01 SP= 0.00E+00 SK= 0.00E+00 mag=     -0.000
522 T=   868. E= -.29237431E+03 F= -.29439284E+03 E0= -.29439284E+03  EK= 0.20185E+01 SP= 0.00E+00 SK= 0.00E+00 mag=     -0.000
523 T=   855. E= -.29237439E+03 F= -.29436467E+03 E0= -.29436467E+03  EK= 0.19903E+01 SP= 0.00E+00 SK= 0.00E+00 mag=      0.000
524 T=   841. E= -.29237449E+03 F= -.29433191E+03 E0= -.29433191E+03  EK= 0.19574E+01 SP= 0.00E+00 SK= 0.00E+00 mag=      0.000
525 T=   825. E= -.29237451E+03 F= -.29429296E+03 E0= -.29429296E+03  EK= 0.19184E+01 SP= 0.00E+00 SK= 0.00E+00 mag=      0.000
526 T=   805. E= -.29237435E+03 F= -.29424786E+03 E0= -.29424786E+03  EK= 0.18735E+01 SP= 0.00E+00 SK= 0.00E+00 mag=     -0.000
527 T=   784. E= -.29237401E+03 F= -.29419916E+03 E0= -.29419916E+03  EK= 0.18252E+01 SP= 0.00E+00 SK= 0.00E+00 mag=     -0.000
528 T=   764. E= -.29237366E+03 F= -.29415179E+03 E0= -.29415179E+03  EK= 0.17781E+01 SP= 0.00E+00 SK= 0.00E+00 mag=     -0.000
529 T=   747. E= -.29237351E+03 F= -.29411091E+03 E0= -.29411091E+03  EK= 0.17374E+01 SP= 0.00E+00 SK= 0.00E+00 mag=      0.000
530 T=   733. E= -.29237366E+03 F= -.29407878E+03 E0= -.29407878E+03  EK= 0.17051E+01 SP= 0.00E+00 SK= 0.00E+00 mag=      0.000
531 T=   722. E= -.29237405E+03 F= -.29405301E+03 E0= -.29405301E+03  EK= 0.16790E+01 SP= 0.00E+00 SK= 0.00E+00 mag=      0.000
532 T=   711. E= -.29237445E+03 F= -.29402764E+03 E0= -.29402764E+03  EK= 0.16532E+01 SP= 0.00E+00 SK= 0.00E+00 mag=      0.000
533 T=   697. E= -.29237460E+03 F= -.29399669E+03 E0= -.29399669E+03  EK= 0.16221E+01 SP= 0.00E+00 SK= 0.00E+00 mag=     -0.000
534 T=   681. E= -.29237442E+03 F= -.29395778E+03 E0= -.29395778E+03  EK= 0.15834E+01 SP= 0.00E+00 SK= 0.00E+00 mag=     -0.000
535 T=   662. E= -.29237401E+03 F= -.29391335E+03 E0= -.29391335E+03  EK= 0.15393E+01 SP= 0.00E+00 SK= 0.00E+00 mag=     -0.000
536 T=   643. E= -.29237355E+03 F= -.29386939E+03 E0= -.29386939E+03  EK= 0.14958E+01 SP= 0.00E+00 SK= 0.00E+00 mag=      0.000
537 T=   627. E= -.29237326E+03 F= -.29383260E+03 E0= -.29383260E+03  EK= 0.14593E+01 SP= 0.00E+00 SK= 0.00E+00 mag=      0.000
538 T=   616. E= -.29237323E+03 F= -.29380734E+03 E0= -.29380734E+03  EK= 0.14341E+01 SP= 0.00E+00 SK= 0.00E+00 mag=     -0.000
539 T=   611. E= -.29237341E+03 F= -.29379418E+03 E0= -.29379418E+03  EK= 0.14208E+01 SP= 0.00E+00 SK= 0.00E+00 mag=     -0.000
540 T=   609. E= -.29237370E+03 F= -.29379036E+03 E0= -.29379036E+03  EK= 0.14167E+01 SP= 0.00E+00 SK= 0.00E+00 mag=      0.000
541 T=   609. E= -.29237395E+03 F= -.29379141E+03 E0= -.29379141E+03  EK= 0.14175E+01 SP= 0.00E+00 SK= 0.00E+00 mag=      0.000
542 T=   610. E= -.29237413E+03 F= -.29379302E+03 E0= -.29379302E+03  EK= 0.14189E+01 SP= 0.00E+00 SK= 0.00E+00 mag=      0.000
543 T=   609. E= -.29237419E+03 F= -.29379222E+03 E0= -.29379222E+03  EK= 0.14180E+01 SP= 0.00E+00 SK= 0.00E+00 mag=     -0.000
544 T=   608. E= -.29237408E+03 F= -.29378803E+03 E0= -.29378803E+03  EK= 0.14139E+01 SP= 0.00E+00 SK= 0.00E+00 mag=     -0.000
545 T=   605. E= -.29237381E+03 F= -.29378203E+03 E0= -.29378203E+03  EK= 0.14082E+01 SP= 0.00E+00 SK= 0.00E+00 mag=     -0.000
546 T=   604. E= -.29237346E+03 F= -.29377829E+03 E0= -.29377829E+03  EK= 0.14048E+01 SP= 0.00E+00 SK= 0.00E+00 mag=      0.000
547 T=   606. E= -.29237318E+03 F= -.29378204E+03 E0= -.29378204E+03  EK= 0.14089E+01 SP= 0.00E+00 SK= 0.00E+00 mag=      0.000
548 T=   612. E= -.29237319E+03 F= -.29379719E+03 E0= -.29379719E+03  EK= 0.14240E+01 SP= 0.00E+00 SK= 0.00E+00 mag=      0.000
549 T=   623. E= -.29237350E+03 F= -.29382360E+03 E0= -.29382360E+03  EK= 0.14501E+01 SP= 0.00E+00 SK= 0.00E+00 mag=      0.000
550 T=   637. E= -.29237398E+03 F= -.29385647E+03 E0= -.29385647E+03  EK= 0.14825E+01 SP= 0.00E+00 SK= 0.00E+00 mag=     -0.000
551 T=   651. E= -.29237439E+03 F= -.29388836E+03 E0= -.29388836E+03  EK= 0.15140E+01 SP= 0.00E+00 SK= 0.00E+00 mag=      0.000
552 T=   661. E= -.29237455E+03 F= -.29391277E+03 E0= -.29391277E+03  EK= 0.15382E+01 SP= 0.00E+00 SK= 0.00E+00 mag=      0.000
553 T=   667. E= -.29237439E+03 F= -.29392715E+03 E0= -.29392715E+03  EK= 0.15528E+01 SP= 0.00E+00 SK= 0.00E+00 mag=      0.000
554 T=   670. E= -.29237399E+03 F= -.29393373E+03 E0= -.29393373E+03  EK= 0.15597E+01 SP= 0.00E+00 SK= 0.00E+00 mag=      0.000
555 T=   672. E= -.29237360E+03 F= -.29393799E+03 E0= -.29393799E+03  EK= 0.15644E+01 SP= 0.00E+00 SK= 0.00E+00 mag=     -0.000
556 T=   676. E= -.29237337E+03 F= -.29394569E+03 E0= -.29394569E+03  EK= 0.15723E+01 SP= 0.00E+00 SK= 0.00E+00 mag=     -0.000
557 T=   682. E= -.29237344E+03 F= -.29396014E+03 E0= -.29396014E+03  EK= 0.15867E+01 SP= 0.00E+00 SK= 0.00E+00 mag=      0.000
558 T=   691. E= -.29237368E+03 F= -.29398062E+03 E0= -.29398062E+03  EK= 0.16069E+01 SP= 0.00E+00 SK= 0.00E+00 mag=      0.000
559 T=   700. E= -.29237401E+03 F= -.29400326E+03 E0= -.29400326E+03  EK= 0.16293E+01 SP= 0.00E+00 SK= 0.00E+00 mag=      0.000
560 T=   709. E= -.29237428E+03 F= -.29402286E+03 E0= -.29402286E+03  EK= 0.16486E+01 SP= 0.00E+00 SK= 0.00E+00 mag=     -0.000
561 T=   714. E= -.29237446E+03 F= -.29403478E+03 E0= -.29403478E+03  EK= 0.16603E+01 SP= 0.00E+00 SK= 0.00E+00 mag=     -0.000
562 T=   714. E= -.29237453E+03 F= -.29403605E+03 E0= -.29403605E+03  EK= 0.16615E+01 SP= 0.00E+00 SK= 0.00E+00 mag=     -0.000
563 T=   710. E= -.29237442E+03 F= -.29402577E+03 E0= -.29402577E+03  EK= 0.16513E+01 SP= 0.00E+00 SK= 0.00E+00 mag=     -0.000
564 T=   701. E= -.29237420E+03 F= -.29400557E+03 E0= -.29400557E+03  EK= 0.16314E+01 SP= 0.00E+00 SK= 0.00E+00 mag=      0.000
565 T=   690. E= -.29237384E+03 F= -.29397931E+03 E0= -.29397931E+03  EK= 0.16055E+01 SP= 0.00E+00 SK= 0.00E+00 mag=      0.000
566 T=   679. E= -.29237349E+03 F= -.29395233E+03 E0= -.29395233E+03  EK= 0.15788E+01 SP= 0.00E+00 SK= 0.00E+00 mag=      0.000
567 T=   669. E= -.29237335E+03 F= -.29392952E+03 E0= -.29392952E+03  EK= 0.15562E+01 SP= 0.00E+00 SK= 0.00E+00 mag=     -0.000
568 T=   662. E= -.29237349E+03 F= -.29391278E+03 E0= -.29391278E+03  EK= 0.15393E+01 SP= 0.00E+00 SK= 0.00E+00 mag=     -0.000
569 T=   656. E= -.29237385E+03 F= -.29389997E+03 E0= -.29389997E+03  EK= 0.15261E+01 SP= 0.00E+00 SK= 0.00E+00 mag=     -0.000
570 T=   650. E= -.29237422E+03 F= -.29388582E+03 E0= -.29388582E+03  EK= 0.15116E+01 SP= 0.00E+00 SK= 0.00E+00 mag=      0.000
571 T=   640. E= -.29237441E+03 F= -.29386465E+03 E0= -.29386465E+03  EK= 0.14902E+01 SP= 0.00E+00 SK= 0.00E+00 mag=      0.000
572 T=   627. E= -.29237436E+03 F= -.29383317E+03 E0= -.29383317E+03  EK= 0.14588E+01 SP= 0.00E+00 SK= 0.00E+00 mag=      0.000
573 T=   609. E= -.29237407E+03 F= -.29379207E+03 E0= -.29379207E+03  EK= 0.14180E+01 SP= 0.00E+00 SK= 0.00E+00 mag=     -0.000
574 T=   590. E= -.29237362E+03 F= -.29374599E+03 E0= -.29374599E+03  EK= 0.13724E+01 SP= 0.00E+00 SK= 0.00E+00 mag=     -0.000
575 T=   571. E= -.29237317E+03 F= -.29370177E+03 E0= -.29370177E+03  EK= 0.13286E+01 SP= 0.00E+00 SK= 0.00E+00 mag=     -0.000
576 T=   556. E= -.29237292E+03 F= -.29366618E+03 E0= -.29366618E+03  EK= 0.12933E+01 SP= 0.00E+00 SK= 0.00E+00 mag=     -0.000
577 T=   546. E= -.29237289E+03 F= -.29364339E+03 E0= -.29364339E+03  EK= 0.12705E+01 SP= 0.00E+00 SK= 0.00E+00 mag=      0.000
578 T=   542. E= -.29237308E+03 F= -.29363380E+03 E0= -.29363380E+03  EK= 0.12607E+01 SP= 0.00E+00 SK= 0.00E+00 mag=     -0.000
579 T=   542. E= -.29237338E+03 F= -.29363442E+03 E0= -.29363442E+03  EK= 0.12610E+01 SP= 0.00E+00 SK= 0.00E+00 mag=     -0.000
580 T=   544. E= -.29237368E+03 F= -.29364038E+03 E0= -.29364038E+03  EK= 0.12667E+01 SP= 0.00E+00 SK= 0.00E+00 mag=     -0.000
581 T=   547. E= -.29237389E+03 F= -.29364689E+03 E0= -.29364689E+03  EK= 0.12730E+01 SP= 0.00E+00 SK= 0.00E+00 mag=     -0.000
582 T=   549. E= -.29237395E+03 F= -.29365060E+03 E0= -.29365060E+03  EK= 0.12767E+01 SP= 0.00E+00 SK= 0.00E+00 mag=      0.000
583 T=   549. E= -.29237384E+03 F= -.29365048E+03 E0= -.29365048E+03  EK= 0.12766E+01 SP= 0.00E+00 SK= 0.00E+00 mag=      0.000
584 T=   548. E= -.29237355E+03 F= -.29364819E+03 E0= -.29364819E+03  EK= 0.12746E+01 SP= 0.00E+00 SK= 0.00E+00 mag=      0.000
585 T=   548. E= -.29237320E+03 F= -.29364785E+03 E0= -.29364785E+03  EK= 0.12746E+01 SP= 0.00E+00 SK= 0.00E+00 mag=     -0.000
586 T=   551. E= -.29237295E+03 F= -.29365458E+03 E0= -.29365458E+03  EK= 0.12816E+01 SP= 0.00E+00 SK= 0.00E+00 mag=     -0.000
587 T=   558. E= -.29237293E+03 F= -.29367210E+03 E0= -.29367210E+03  EK= 0.12992E+01 SP= 0.00E+00 SK= 0.00E+00 mag=     -0.000
